
Host: localhost.localdomain

Timers On : Fri Dec 18 17:25:52 2020
Timers Off: Fri Dec 18 17:25:54 2020

Wall Time:        2.85 seconds

                                                       Time (seconds)
Module                                       User      System        Wall        Calls

--------------------------------------------------------------------------------------

**************************************************************************************

Host: localhost.localdomain

Timers On : Fri Dec 18 17:27:58 2020
Timers Off: Fri Dec 18 17:28:01 2020

Wall Time:        3.33 seconds

                                                       Time (seconds)
Module                                       User      System        Wall        Calls
Total PK formation time             :      0.183u      0.017s      0.216w      1 calls
HF: Form core H                     :      0.000u      0.000s      0.001w      1 calls
HF: Form S/X                        :      0.017u      0.000s      0.000w      1 calls
HF: Guess                           :      0.300u      0.000s      0.192w      1 calls
SAD Guess                           :      0.300u      0.000s      0.189w      1 calls
HF: Form G                          :      0.017u      0.000s      0.005w     11 calls
JK: D                               :      0.000u      0.000s      0.000w     11 calls
JK: USO2AO                          :      0.000u      0.000s      0.001w     11 calls
JK: JK                              :      0.000u      0.000s      0.003w     11 calls
PK computes JK                      :      0.000u      0.000s      0.003w     11 calls
JK: AO2USO                          :      0.017u      0.000s      0.001w     11 calls
HF: Form F                          :      0.000u      0.000s      0.001w     11 calls
HF: Form D                          :      0.000u      0.000s      0.000w     11 calls
HF: DIIS                            :      0.017u      0.000s      0.014w     10 calls
DIISManager::add_entry              :      0.000u      0.000s      0.002w     10 calls
DIISManager::extrapolate            :      0.017u      0.000s      0.002w     10 calls
bMatrix setup                       :      0.017u      0.000s      0.001w     10 calls
bMatrix pseudoinverse               :      0.000u      0.000s      0.001w     10 calls
New vector                          :      0.000u      0.000s      0.000w     10 calls
HF: Form C                          :      0.000u      0.000s      0.002w     10 calls

--------------------------------------------------------------------------------------
Total PK formation time             :      0.183u      0.017s      0.216w      1 calls
HF: Form core H                     :      0.000u      0.000s      0.001w      1 calls
HF: Form S/X                        :      0.017u      0.000s      0.000w      1 calls
HF: Guess                           :      0.300u      0.000s      0.192w      1 calls
| SAD Guess                         :      0.300u      0.000s      0.189w      1 calls
HF: Form G                          :      0.017u      0.000s      0.005w     11 calls
| JK: D                             :      0.000u      0.000s      0.000w     11 calls
| JK: USO2AO                        :      0.000u      0.000s      0.001w     11 calls
| JK: JK                            :      0.000u      0.000s      0.003w     11 calls
| | PK computes JK                  :      0.000u      0.000s      0.003w     11 calls
| JK: AO2USO                        :      0.017u      0.000s      0.001w     11 calls
HF: Form F                          :      0.000u      0.000s      0.001w     11 calls
HF: Form D                          :      0.000u      0.000s      0.000w     11 calls
HF: DIIS                            :      0.017u      0.000s      0.014w     10 calls
| DIISManager::add_entry            :      0.000u      0.000s      0.002w     10 calls
| DIISManager::extrapolate          :      0.017u      0.000s      0.002w     10 calls
| | bMatrix setup                   :      0.017u      0.000s      0.001w     10 calls
| | bMatrix pseudoinverse           :      0.000u      0.000s      0.001w     10 calls
| | New vector                      :      0.000u      0.000s      0.000w     10 calls
HF: Form C                          :      0.000u      0.000s      0.002w     10 calls

**************************************************************************************

Host: localhost.localdomain

Timers On : Fri Dec 18 17:28:43 2020
Timers Off: Fri Dec 18 17:28:46 2020

Wall Time:        3.06 seconds

                                                       Time (seconds)
Module                                       User      System        Wall        Calls
Total PK formation time             :      0.183u      0.017s      0.116w      1 calls
HF: Form core H                     :      0.000u      0.000s      0.001w      1 calls
HF: Form S/X                        :      0.000u      0.000s      0.000w      1 calls
HF: Guess                           :      0.300u      0.000s      0.190w      1 calls
SAD Guess                           :      0.300u      0.000s      0.187w      1 calls
HF: Form G                          :      0.000u      0.000s      0.006w     11 calls
JK: D                               :      0.000u      0.000s      0.000w     11 calls
JK: USO2AO                          :      0.000u      0.000s      0.001w     11 calls
JK: JK                              :      0.000u      0.000s      0.004w     11 calls
PK computes JK                      :      0.000u      0.000s      0.004w     11 calls
JK: AO2USO                          :      0.000u      0.000s      0.001w     11 calls
HF: Form F                          :      0.000u      0.000s      0.001w     11 calls
HF: Form D                          :      0.000u      0.000s      0.000w     11 calls
HF: DIIS                            :      0.017u      0.000s      0.015w     10 calls
DIISManager::add_entry              :      0.000u      0.000s      0.002w     10 calls
DIISManager::extrapolate            :      0.000u      0.000s      0.002w     10 calls
bMatrix setup                       :      0.000u      0.000s      0.001w     10 calls
bMatrix pseudoinverse               :      0.000u      0.000s      0.001w     10 calls
New vector                          :      0.000u      0.000s      0.000w     10 calls
HF: Form C                          :      0.000u      0.000s      0.002w     10 calls

--------------------------------------------------------------------------------------
Total PK formation time             :      0.183u      0.017s      0.116w      1 calls
HF: Form core H                     :      0.000u      0.000s      0.001w      1 calls
HF: Form S/X                        :      0.000u      0.000s      0.000w      1 calls
HF: Guess                           :      0.300u      0.000s      0.190w      1 calls
| SAD Guess                         :      0.300u      0.000s      0.187w      1 calls
HF: Form G                          :      0.000u      0.000s      0.006w     11 calls
| JK: D                             :      0.000u      0.000s      0.000w     11 calls
| JK: USO2AO                        :      0.000u      0.000s      0.001w     11 calls
| JK: JK                            :      0.000u      0.000s      0.004w     11 calls
| | PK computes JK                  :      0.000u      0.000s      0.004w     11 calls
| JK: AO2USO                        :      0.000u      0.000s      0.001w     11 calls
HF: Form F                          :      0.000u      0.000s      0.001w     11 calls
HF: Form D                          :      0.000u      0.000s      0.000w     11 calls
HF: DIIS                            :      0.017u      0.000s      0.015w     10 calls
| DIISManager::add_entry            :      0.000u      0.000s      0.002w     10 calls
| DIISManager::extrapolate          :      0.000u      0.000s      0.002w     10 calls
| | bMatrix setup                   :      0.000u      0.000s      0.001w     10 calls
| | bMatrix pseudoinverse           :      0.000u      0.000s      0.001w     10 calls
| | New vector                      :      0.000u      0.000s      0.000w     10 calls
HF: Form C                          :      0.000u      0.000s      0.002w     10 calls

**************************************************************************************

Host: localhost.localdomain

Timers On : Fri Dec 18 17:38:16 2020
Timers Off: Fri Dec 18 17:38:19 2020

Wall Time:        3.17 seconds

                                                       Time (seconds)
Module                                       User      System        Wall        Calls
Total PK formation time             :      0.200u      0.000s      0.117w      1 calls
HF: Form core H                     :      0.000u      0.000s      0.001w      1 calls
HF: Form S/X                        :      0.000u      0.000s      0.000w      1 calls
HF: Guess                           :      0.300u      0.000s      0.190w      1 calls
SAD Guess                           :      0.300u      0.000s      0.187w      1 calls
HF: Form G                          :      0.017u      0.000s      0.005w     11 calls
JK: D                               :      0.000u      0.000s      0.000w     11 calls
JK: USO2AO                          :      0.000u      0.000s      0.001w     11 calls
JK: JK                              :      0.017u      0.000s      0.003w     11 calls
PK computes JK                      :      0.017u      0.000s      0.003w     11 calls
JK: AO2USO                          :      0.000u      0.000s      0.001w     11 calls
HF: Form F                          :      0.000u      0.000s      0.001w     11 calls
HF: Form D                          :      0.000u      0.000s      0.000w     11 calls
HF: DIIS                            :      0.033u      0.000s      0.014w     10 calls
DIISManager::add_entry              :      0.000u      0.000s      0.002w     10 calls
DIISManager::extrapolate            :      0.033u      0.000s      0.002w     10 calls
bMatrix setup                       :      0.017u      0.000s      0.001w     10 calls
bMatrix pseudoinverse               :      0.017u      0.000s      0.001w     10 calls
New vector                          :      0.000u      0.000s      0.000w     10 calls
HF: Form C                          :      0.000u      0.000s      0.002w     10 calls

--------------------------------------------------------------------------------------
Total PK formation time             :      0.200u      0.000s      0.117w      1 calls
HF: Form core H                     :      0.000u      0.000s      0.001w      1 calls
HF: Form S/X                        :      0.000u      0.000s      0.000w      1 calls
HF: Guess                           :      0.300u      0.000s      0.190w      1 calls
| SAD Guess                         :      0.300u      0.000s      0.187w      1 calls
HF: Form G                          :      0.017u      0.000s      0.005w     11 calls
| JK: D                             :      0.000u      0.000s      0.000w     11 calls
| JK: USO2AO                        :      0.000u      0.000s      0.001w     11 calls
| JK: JK                            :      0.017u      0.000s      0.003w     11 calls
| | PK computes JK                  :      0.017u      0.000s      0.003w     11 calls
| JK: AO2USO                        :      0.000u      0.000s      0.001w     11 calls
HF: Form F                          :      0.000u      0.000s      0.001w     11 calls
HF: Form D                          :      0.000u      0.000s      0.000w     11 calls
HF: DIIS                            :      0.033u      0.000s      0.014w     10 calls
| DIISManager::add_entry            :      0.000u      0.000s      0.002w     10 calls
| DIISManager::extrapolate          :      0.033u      0.000s      0.002w     10 calls
| | bMatrix setup                   :      0.017u      0.000s      0.001w     10 calls
| | bMatrix pseudoinverse           :      0.017u      0.000s      0.001w     10 calls
| | New vector                      :      0.000u      0.000s      0.000w     10 calls
HF: Form C                          :      0.000u      0.000s      0.002w     10 calls

**************************************************************************************

Host: localhost.localdomain

Timers On : Fri Dec 18 17:38:32 2020
Timers Off: Fri Dec 18 17:38:35 2020

Wall Time:        3.04 seconds

                                                       Time (seconds)
Module                                       User      System        Wall        Calls
Total PK formation time             :      0.183u      0.000s      0.115w      1 calls
HF: Form core H                     :      0.000u      0.000s      0.001w      1 calls
HF: Form S/X                        :      0.017u      0.000s      0.000w      1 calls
HF: Guess                           :      0.300u      0.000s      0.188w      1 calls
SAD Guess                           :      0.300u      0.000s      0.185w      1 calls
HF: Form G                          :      0.017u      0.000s      0.005w     11 calls
JK: D                               :      0.000u      0.000s      0.000w     11 calls
JK: USO2AO                          :      0.000u      0.000s      0.001w     11 calls
JK: JK                              :      0.017u      0.000s      0.003w     11 calls
PK computes JK                      :      0.017u      0.000s      0.003w     11 calls
JK: AO2USO                          :      0.000u      0.000s      0.001w     11 calls
HF: Form F                          :      0.000u      0.000s      0.001w     11 calls
HF: Form D                          :      0.000u      0.000s      0.000w     11 calls
HF: DIIS                            :      0.017u      0.000s      0.013w     10 calls
DIISManager::add_entry              :      0.000u      0.000s      0.002w     10 calls
DIISManager::extrapolate            :      0.000u      0.000s      0.002w     10 calls
bMatrix setup                       :      0.000u      0.000s      0.001w     10 calls
bMatrix pseudoinverse               :      0.000u      0.000s      0.001w     10 calls
New vector                          :      0.000u      0.000s      0.000w     10 calls
HF: Form C                          :      0.000u      0.000s      0.002w     10 calls

--------------------------------------------------------------------------------------
Total PK formation time             :      0.183u      0.000s      0.115w      1 calls
HF: Form core H                     :      0.000u      0.000s      0.001w      1 calls
HF: Form S/X                        :      0.017u      0.000s      0.000w      1 calls
HF: Guess                           :      0.300u      0.000s      0.188w      1 calls
| SAD Guess                         :      0.300u      0.000s      0.185w      1 calls
HF: Form G                          :      0.017u      0.000s      0.005w     11 calls
| JK: D                             :      0.000u      0.000s      0.000w     11 calls
| JK: USO2AO                        :      0.000u      0.000s      0.001w     11 calls
| JK: JK                            :      0.017u      0.000s      0.003w     11 calls
| | PK computes JK                  :      0.017u      0.000s      0.003w     11 calls
| JK: AO2USO                        :      0.000u      0.000s      0.001w     11 calls
HF: Form F                          :      0.000u      0.000s      0.001w     11 calls
HF: Form D                          :      0.000u      0.000s      0.000w     11 calls
HF: DIIS                            :      0.017u      0.000s      0.013w     10 calls
| DIISManager::add_entry            :      0.000u      0.000s      0.002w     10 calls
| DIISManager::extrapolate          :      0.000u      0.000s      0.002w     10 calls
| | bMatrix setup                   :      0.000u      0.000s      0.001w     10 calls
| | bMatrix pseudoinverse           :      0.000u      0.000s      0.001w     10 calls
| | New vector                      :      0.000u      0.000s      0.000w     10 calls
HF: Form C                          :      0.000u      0.000s      0.002w     10 calls

**************************************************************************************

Host: localhost.localdomain

Timers On : Fri Dec 18 18:04:38 2020
Timers Off: Fri Dec 18 18:04:41 2020

Wall Time:        3.03 seconds

                                                       Time (seconds)
Module                                       User      System        Wall        Calls
Total PK formation time             :      0.200u      0.000s      0.116w      1 calls
HF: Form core H                     :      0.000u      0.000s      0.001w      1 calls
HF: Form S/X                        :      0.000u      0.000s      0.000w      1 calls
HF: Guess                           :      0.300u      0.000s      0.187w      1 calls
SAD Guess                           :      0.300u      0.000s      0.185w      1 calls
HF: Form G                          :      0.033u      0.000s      0.005w     11 calls
JK: D                               :      0.000u      0.000s      0.000w     11 calls
JK: USO2AO                          :      0.000u      0.000s      0.001w     11 calls
JK: JK                              :      0.033u      0.000s      0.003w     11 calls
PK computes JK                      :      0.033u      0.000s      0.003w     11 calls
JK: AO2USO                          :      0.000u      0.000s      0.001w     11 calls
HF: Form F                          :      0.000u      0.000s      0.001w     11 calls
HF: Form D                          :      0.000u      0.000s      0.000w     11 calls
HF: DIIS                            :      0.033u      0.000s      0.014w     10 calls
DIISManager::add_entry              :      0.000u      0.000s      0.002w     10 calls
DIISManager::extrapolate            :      0.017u      0.000s      0.002w     10 calls
bMatrix setup                       :      0.000u      0.000s      0.001w     10 calls
bMatrix pseudoinverse               :      0.000u      0.000s      0.001w     10 calls
New vector                          :      0.017u      0.000s      0.000w     10 calls
HF: Form C                          :      0.000u      0.000s      0.002w     10 calls

--------------------------------------------------------------------------------------
Total PK formation time             :      0.200u      0.000s      0.116w      1 calls
HF: Form core H                     :      0.000u      0.000s      0.001w      1 calls
HF: Form S/X                        :      0.000u      0.000s      0.000w      1 calls
HF: Guess                           :      0.300u      0.000s      0.187w      1 calls
| SAD Guess                         :      0.300u      0.000s      0.185w      1 calls
HF: Form G                          :      0.033u      0.000s      0.005w     11 calls
| JK: D                             :      0.000u      0.000s      0.000w     11 calls
| JK: USO2AO                        :      0.000u      0.000s      0.001w     11 calls
| JK: JK                            :      0.033u      0.000s      0.003w     11 calls
| | PK computes JK                  :      0.033u      0.000s      0.003w     11 calls
| JK: AO2USO                        :      0.000u      0.000s      0.001w     11 calls
HF: Form F                          :      0.000u      0.000s      0.001w     11 calls
HF: Form D                          :      0.000u      0.000s      0.000w     11 calls
HF: DIIS                            :      0.033u      0.000s      0.014w     10 calls
| DIISManager::add_entry            :      0.000u      0.000s      0.002w     10 calls
| DIISManager::extrapolate          :      0.017u      0.000s      0.002w     10 calls
| | bMatrix setup                   :      0.000u      0.000s      0.001w     10 calls
| | bMatrix pseudoinverse           :      0.000u      0.000s      0.001w     10 calls
| | New vector                      :      0.017u      0.000s      0.000w     10 calls
HF: Form C                          :      0.000u      0.000s      0.002w     10 calls

**************************************************************************************

Host: localhost.localdomain

Timers On : Fri Dec 18 18:21:10 2020
Timers Off: Fri Dec 18 18:21:13 2020

Wall Time:        3.04 seconds

                                                       Time (seconds)
Module                                       User      System        Wall        Calls
Total PK formation time             :      0.200u      0.017s      0.114w      1 calls
HF: Form core H                     :      0.000u      0.000s      0.001w      1 calls
HF: Form S/X                        :      0.000u      0.000s      0.000w      1 calls
HF: Guess                           :      0.300u      0.000s      0.190w      1 calls
SAD Guess                           :      0.300u      0.000s      0.187w      1 calls
HF: Form G                          :      0.000u      0.000s      0.005w     11 calls
JK: D                               :      0.000u      0.000s      0.000w     11 calls
JK: USO2AO                          :      0.000u      0.000s      0.001w     11 calls
JK: JK                              :      0.000u      0.000s      0.003w     11 calls
PK computes JK                      :      0.000u      0.000s      0.003w     11 calls
JK: AO2USO                          :      0.000u      0.000s      0.001w     11 calls
HF: Form F                          :      0.000u      0.000s      0.001w     11 calls
HF: Form D                          :      0.000u      0.000s      0.000w     11 calls
HF: DIIS                            :      0.050u      0.000s      0.014w     10 calls
DIISManager::add_entry              :      0.000u      0.000s      0.002w     10 calls
DIISManager::extrapolate            :      0.000u      0.000s      0.002w     10 calls
bMatrix setup                       :      0.000u      0.000s      0.001w     10 calls
bMatrix pseudoinverse               :      0.000u      0.000s      0.001w     10 calls
New vector                          :      0.000u      0.000s      0.000w     10 calls
HF: Form C                          :      0.000u      0.000s      0.002w     10 calls

--------------------------------------------------------------------------------------
Total PK formation time             :      0.200u      0.017s      0.114w      1 calls
HF: Form core H                     :      0.000u      0.000s      0.001w      1 calls
HF: Form S/X                        :      0.000u      0.000s      0.000w      1 calls
HF: Guess                           :      0.300u      0.000s      0.190w      1 calls
| SAD Guess                         :      0.300u      0.000s      0.187w      1 calls
HF: Form G                          :      0.000u      0.000s      0.005w     11 calls
| JK: D                             :      0.000u      0.000s      0.000w     11 calls
| JK: USO2AO                        :      0.000u      0.000s      0.001w     11 calls
| JK: JK                            :      0.000u      0.000s      0.003w     11 calls
| | PK computes JK                  :      0.000u      0.000s      0.003w     11 calls
| JK: AO2USO                        :      0.000u      0.000s      0.001w     11 calls
HF: Form F                          :      0.000u      0.000s      0.001w     11 calls
HF: Form D                          :      0.000u      0.000s      0.000w     11 calls
HF: DIIS                            :      0.050u      0.000s      0.014w     10 calls
| DIISManager::add_entry            :      0.000u      0.000s      0.002w     10 calls
| DIISManager::extrapolate          :      0.000u      0.000s      0.002w     10 calls
| | bMatrix setup                   :      0.000u      0.000s      0.001w     10 calls
| | bMatrix pseudoinverse           :      0.000u      0.000s      0.001w     10 calls
| | New vector                      :      0.000u      0.000s      0.000w     10 calls
HF: Form C                          :      0.000u      0.000s      0.002w     10 calls

**************************************************************************************

Host: localhost.localdomain

Timers On : Sat Dec 19 20:30:07 2020
Timers Off: Sat Dec 19 20:30:14 2020

Wall Time:        6.78 seconds

                                                       Time (seconds)
Module                                       User      System        Wall        Calls
Total PK formation time             :      0.167u      0.017s      0.156w      1 calls
HF: Form core H                     :      0.000u      0.000s      0.001w      1 calls
HF: Form S/X                        :      0.000u      0.000s      0.000w      1 calls
HF: Guess                           :      0.283u      0.000s      0.168w      1 calls
SAD Guess                           :      0.283u      0.000s      0.166w      1 calls
HF: Form G                          :      0.017u      0.000s      0.004w     11 calls
JK: D                               :      0.000u      0.000s      0.000w     11 calls
JK: USO2AO                          :      0.000u      0.000s      0.001w     11 calls
JK: JK                              :      0.017u      0.000s      0.003w     11 calls
PK computes JK                      :      0.017u      0.000s      0.003w     11 calls
JK: AO2USO                          :      0.000u      0.000s      0.000w     11 calls
HF: Form F                          :      0.000u      0.000s      0.001w     11 calls
HF: Form D                          :      0.000u      0.000s      0.000w     11 calls
HF: DIIS                            :      0.050u      0.000s      0.012w     10 calls
DIISManager::add_entry              :      0.000u      0.000s      0.002w     10 calls
DIISManager::extrapolate            :      0.000u      0.000s      0.002w     10 calls
bMatrix setup                       :      0.000u      0.000s      0.001w     10 calls
bMatrix pseudoinverse               :      0.000u      0.000s      0.001w     10 calls
New vector                          :      0.000u      0.000s      0.000w     10 calls
HF: Form C                          :      0.000u      0.000s      0.002w     10 calls

--------------------------------------------------------------------------------------
Total PK formation time             :      0.167u      0.017s      0.156w      1 calls
HF: Form core H                     :      0.000u      0.000s      0.001w      1 calls
HF: Form S/X                        :      0.000u      0.000s      0.000w      1 calls
HF: Guess                           :      0.283u      0.000s      0.168w      1 calls
| SAD Guess                         :      0.283u      0.000s      0.166w      1 calls
HF: Form G                          :      0.017u      0.000s      0.004w     11 calls
| JK: D                             :      0.000u      0.000s      0.000w     11 calls
| JK: USO2AO                        :      0.000u      0.000s      0.001w     11 calls
| JK: JK                            :      0.017u      0.000s      0.003w     11 calls
| | PK computes JK                  :      0.017u      0.000s      0.003w     11 calls
| JK: AO2USO                        :      0.000u      0.000s      0.000w     11 calls
HF: Form F                          :      0.000u      0.000s      0.001w     11 calls
HF: Form D                          :      0.000u      0.000s      0.000w     11 calls
HF: DIIS                            :      0.050u      0.000s      0.012w     10 calls
| DIISManager::add_entry            :      0.000u      0.000s      0.002w     10 calls
| DIISManager::extrapolate          :      0.000u      0.000s      0.002w     10 calls
| | bMatrix setup                   :      0.000u      0.000s      0.001w     10 calls
| | bMatrix pseudoinverse           :      0.000u      0.000s      0.001w     10 calls
| | New vector                      :      0.000u      0.000s      0.000w     10 calls
HF: Form C                          :      0.000u      0.000s      0.002w     10 calls

**************************************************************************************

Host: localhost.localdomain

Timers On : Sat Dec 19 22:30:04 2020
Timers Off: Sat Dec 19 22:30:07 2020

Wall Time:        2.80 seconds

                                                       Time (seconds)
Module                                       User      System        Wall        Calls
Total PK formation time             :      0.167u      0.000s      0.106w      1 calls
HF: Form core H                     :      0.000u      0.000s      0.001w      1 calls
HF: Form S/X                        :      0.000u      0.000s      0.000w      1 calls
HF: Guess                           :      0.283u      0.017s      0.172w      1 calls
SAD Guess                           :      0.283u      0.017s      0.169w      1 calls
HF: Form G                          :      0.017u      0.000s      0.004w     11 calls
JK: D                               :      0.000u      0.000s      0.000w     11 calls
JK: USO2AO                          :      0.017u      0.000s      0.001w     11 calls
JK: JK                              :      0.000u      0.000s      0.003w     11 calls
PK computes JK                      :      0.000u      0.000s      0.003w     11 calls
JK: AO2USO                          :      0.000u      0.000s      0.000w     11 calls
HF: Form F                          :      0.000u      0.000s      0.001w     11 calls
HF: Form D                          :      0.000u      0.000s      0.000w     11 calls
HF: DIIS                            :      0.000u      0.000s      0.013w     10 calls
DIISManager::add_entry              :      0.000u      0.000s      0.002w     10 calls
DIISManager::extrapolate            :      0.000u      0.000s      0.002w     10 calls
bMatrix setup                       :      0.000u      0.000s      0.001w     10 calls
bMatrix pseudoinverse               :      0.000u      0.000s      0.001w     10 calls
New vector                          :      0.000u      0.000s      0.000w     10 calls
HF: Form C                          :      0.000u      0.000s      0.002w     10 calls

--------------------------------------------------------------------------------------
Total PK formation time             :      0.167u      0.000s      0.106w      1 calls
HF: Form core H                     :      0.000u      0.000s      0.001w      1 calls
HF: Form S/X                        :      0.000u      0.000s      0.000w      1 calls
HF: Guess                           :      0.283u      0.017s      0.172w      1 calls
| SAD Guess                         :      0.283u      0.017s      0.169w      1 calls
HF: Form G                          :      0.017u      0.000s      0.004w     11 calls
| JK: D                             :      0.000u      0.000s      0.000w     11 calls
| JK: USO2AO                        :      0.017u      0.000s      0.001w     11 calls
| JK: JK                            :      0.000u      0.000s      0.003w     11 calls
| | PK computes JK                  :      0.000u      0.000s      0.003w     11 calls
| JK: AO2USO                        :      0.000u      0.000s      0.000w     11 calls
HF: Form F                          :      0.000u      0.000s      0.001w     11 calls
HF: Form D                          :      0.000u      0.000s      0.000w     11 calls
HF: DIIS                            :      0.000u      0.000s      0.013w     10 calls
| DIISManager::add_entry            :      0.000u      0.000s      0.002w     10 calls
| DIISManager::extrapolate          :      0.000u      0.000s      0.002w     10 calls
| | bMatrix setup                   :      0.000u      0.000s      0.001w     10 calls
| | bMatrix pseudoinverse           :      0.000u      0.000s      0.001w     10 calls
| | New vector                      :      0.000u      0.000s      0.000w     10 calls
HF: Form C                          :      0.000u      0.000s      0.002w     10 calls

**************************************************************************************

Host: localhost.localdomain

Timers On : Sun Dec 20 14:09:34 2020
Timers Off: Sun Dec 20 14:09:39 2020

Wall Time:        4.82 seconds

                                                       Time (seconds)
Module                                       User      System        Wall        Calls
Total PK formation time             :      0.367u      0.000s      0.233w      2 calls
HF: Form core H                     :      0.000u      0.000s      0.001w      1 calls
HF: Form S/X                        :      0.000u      0.000s      0.000w      1 calls
HF: Guess                           :      0.317u      0.000s      0.188w      1 calls
SAD Guess                           :      0.300u      0.000s      0.186w      1 calls
HF: Form G                          :      0.000u      0.000s      0.006w     11 calls
JK: D                               :      0.000u      0.000s      0.000w     11 calls
JK: USO2AO                          :      0.000u      0.000s      0.001w     11 calls
JK: JK                              :      0.000u      0.000s      0.004w     11 calls
PK computes JK                      :      0.000u      0.000s      0.004w     11 calls
JK: AO2USO                          :      0.000u      0.000s      0.001w     11 calls
HF: Form F                          :      0.000u      0.000s      0.001w     11 calls
HF: Form D                          :      0.000u      0.000s      0.000w     11 calls
HF: DIIS                            :      0.050u      0.000s      0.016w     10 calls
DIISManager::add_entry              :      0.000u      0.000s      0.002w     10 calls
DIISManager::extrapolate            :      0.000u      0.000s      0.003w     10 calls
bMatrix setup                       :      0.000u      0.000s      0.001w     10 calls
bMatrix pseudoinverse               :      0.000u      0.000s      0.001w     10 calls
New vector                          :      0.000u      0.000s      0.000w     10 calls
HF: Form C                          :      0.000u      0.000s      0.002w     10 calls

--------------------------------------------------------------------------------------
Total PK formation time             :      0.367u      0.000s      0.233w      2 calls
HF: Form core H                     :      0.000u      0.000s      0.001w      1 calls
HF: Form S/X                        :      0.000u      0.000s      0.000w      1 calls
HF: Guess                           :      0.317u      0.000s      0.188w      1 calls
| SAD Guess                         :      0.300u      0.000s      0.186w      1 calls
HF: Form G                          :      0.000u      0.000s      0.006w     11 calls
| JK: D                             :      0.000u      0.000s      0.000w     11 calls
| JK: USO2AO                        :      0.000u      0.000s      0.001w     11 calls
| JK: JK                            :      0.000u      0.000s      0.004w     11 calls
| | PK computes JK                  :      0.000u      0.000s      0.004w     11 calls
| JK: AO2USO                        :      0.000u      0.000s      0.001w     11 calls
HF: Form F                          :      0.000u      0.000s      0.001w     11 calls
HF: Form D                          :      0.000u      0.000s      0.000w     11 calls
HF: DIIS                            :      0.050u      0.000s      0.016w     10 calls
| DIISManager::add_entry            :      0.000u      0.000s      0.002w     10 calls
| DIISManager::extrapolate          :      0.000u      0.000s      0.003w     10 calls
| | bMatrix setup                   :      0.000u      0.000s      0.001w     10 calls
| | bMatrix pseudoinverse           :      0.000u      0.000s      0.001w     10 calls
| | New vector                      :      0.000u      0.000s      0.000w     10 calls
HF: Form C                          :      0.000u      0.000s      0.002w     10 calls

**************************************************************************************

Host: localhost.localdomain

Timers On : Sun Dec 20 14:12:35 2020
Timers Off: Sun Dec 20 14:12:37 2020

Wall Time:        1.99 seconds

                                                       Time (seconds)
Module                                       User      System        Wall        Calls

--------------------------------------------------------------------------------------

**************************************************************************************

Host: localhost.localdomain

Timers On : Sun Dec 20 14:15:40 2020
Timers Off: Sun Dec 20 14:15:42 2020

Wall Time:        2.03 seconds

                                                       Time (seconds)
Module                                       User      System        Wall        Calls

--------------------------------------------------------------------------------------

**************************************************************************************

Host: localhost.localdomain

Timers On : Sun Dec 20 14:16:19 2020
Timers Off: Sun Dec 20 14:16:22 2020

Wall Time:        3.24 seconds

                                                       Time (seconds)
Module                                       User      System        Wall        Calls
Total PK formation time             :      0.367u      0.017s      0.232w      2 calls
HF: Form core H                     :      0.000u      0.000s      0.001w      1 calls
HF: Form S/X                        :      0.000u      0.000s      0.000w      1 calls
HF: Guess                           :      0.317u      0.000s      0.189w      1 calls
SAD Guess                           :      0.317u      0.000s      0.186w      1 calls
HF: Form G                          :      0.000u      0.000s      0.006w     11 calls
JK: D                               :      0.000u      0.000s      0.000w     11 calls
JK: USO2AO                          :      0.000u      0.000s      0.001w     11 calls
JK: JK                              :      0.000u      0.000s      0.004w     11 calls
PK computes JK                      :      0.000u      0.000s      0.003w     11 calls
JK: AO2USO                          :      0.000u      0.000s      0.001w     11 calls
HF: Form F                          :      0.000u      0.000s      0.001w     11 calls
HF: Form D                          :      0.000u      0.000s      0.000w     11 calls
HF: DIIS                            :      0.017u      0.000s      0.016w     10 calls
DIISManager::add_entry              :      0.017u      0.000s      0.002w     10 calls
DIISManager::extrapolate            :      0.000u      0.000s      0.003w     10 calls
bMatrix setup                       :      0.000u      0.000s      0.001w     10 calls
bMatrix pseudoinverse               :      0.000u      0.000s      0.001w     10 calls
New vector                          :      0.000u      0.000s      0.000w     10 calls
HF: Form C                          :      0.000u      0.000s      0.002w     10 calls

--------------------------------------------------------------------------------------
Total PK formation time             :      0.367u      0.017s      0.232w      2 calls
HF: Form core H                     :      0.000u      0.000s      0.001w      1 calls
HF: Form S/X                        :      0.000u      0.000s      0.000w      1 calls
HF: Guess                           :      0.317u      0.000s      0.189w      1 calls
| SAD Guess                         :      0.317u      0.000s      0.186w      1 calls
HF: Form G                          :      0.000u      0.000s      0.006w     11 calls
| JK: D                             :      0.000u      0.000s      0.000w     11 calls
| JK: USO2AO                        :      0.000u      0.000s      0.001w     11 calls
| JK: JK                            :      0.000u      0.000s      0.004w     11 calls
| | PK computes JK                  :      0.000u      0.000s      0.003w     11 calls
| JK: AO2USO                        :      0.000u      0.000s      0.001w     11 calls
HF: Form F                          :      0.000u      0.000s      0.001w     11 calls
HF: Form D                          :      0.000u      0.000s      0.000w     11 calls
HF: DIIS                            :      0.017u      0.000s      0.016w     10 calls
| DIISManager::add_entry            :      0.017u      0.000s      0.002w     10 calls
| DIISManager::extrapolate          :      0.000u      0.000s      0.003w     10 calls
| | bMatrix setup                   :      0.000u      0.000s      0.001w     10 calls
| | bMatrix pseudoinverse           :      0.000u      0.000s      0.001w     10 calls
| | New vector                      :      0.000u      0.000s      0.000w     10 calls
HF: Form C                          :      0.000u      0.000s      0.002w     10 calls

**************************************************************************************

Host: localhost.localdomain

Timers On : Sun Dec 20 14:16:55 2020
Timers Off: Sun Dec 20 14:16:58 2020

Wall Time:        3.27 seconds

                                                       Time (seconds)
Module                                       User      System        Wall        Calls
Total PK formation time             :      0.367u      0.000s      0.237w      2 calls
HF: Form core H                     :      0.000u      0.000s      0.001w      1 calls
HF: Form S/X                        :      0.000u      0.000s      0.000w      1 calls
HF: Guess                           :      0.317u      0.000s      0.191w      1 calls
SAD Guess                           :      0.300u      0.000s      0.188w      1 calls
HF: Form G                          :      0.000u      0.000s      0.006w     11 calls
JK: D                               :      0.000u      0.000s      0.000w     11 calls
JK: USO2AO                          :      0.000u      0.000s      0.001w     11 calls
JK: JK                              :      0.000u      0.000s      0.004w     11 calls
PK computes JK                      :      0.000u      0.000s      0.004w     11 calls
JK: AO2USO                          :      0.000u      0.000s      0.001w     11 calls
HF: Form F                          :      0.000u      0.000s      0.001w     11 calls
HF: Form D                          :      0.000u      0.000s      0.000w     11 calls
HF: DIIS                            :      0.033u      0.000s      0.025w     10 calls
DIISManager::add_entry              :      0.000u      0.000s      0.009w     10 calls
DIISManager::extrapolate            :      0.000u      0.000s      0.003w     10 calls
bMatrix setup                       :      0.000u      0.000s      0.001w     10 calls
bMatrix pseudoinverse               :      0.000u      0.000s      0.001w     10 calls
New vector                          :      0.000u      0.000s      0.000w     10 calls
HF: Form C                          :      0.017u      0.000s      0.002w     10 calls

--------------------------------------------------------------------------------------
Total PK formation time             :      0.367u      0.000s      0.237w      2 calls
HF: Form core H                     :      0.000u      0.000s      0.001w      1 calls
HF: Form S/X                        :      0.000u      0.000s      0.000w      1 calls
HF: Guess                           :      0.317u      0.000s      0.191w      1 calls
| SAD Guess                         :      0.300u      0.000s      0.188w      1 calls
HF: Form G                          :      0.000u      0.000s      0.006w     11 calls
| JK: D                             :      0.000u      0.000s      0.000w     11 calls
| JK: USO2AO                        :      0.000u      0.000s      0.001w     11 calls
| JK: JK                            :      0.000u      0.000s      0.004w     11 calls
| | PK computes JK                  :      0.000u      0.000s      0.004w     11 calls
| JK: AO2USO                        :      0.000u      0.000s      0.001w     11 calls
HF: Form F                          :      0.000u      0.000s      0.001w     11 calls
HF: Form D                          :      0.000u      0.000s      0.000w     11 calls
HF: DIIS                            :      0.033u      0.000s      0.025w     10 calls
| DIISManager::add_entry            :      0.000u      0.000s      0.009w     10 calls
| DIISManager::extrapolate          :      0.000u      0.000s      0.003w     10 calls
| | bMatrix setup                   :      0.000u      0.000s      0.001w     10 calls
| | bMatrix pseudoinverse           :      0.000u      0.000s      0.001w     10 calls
| | New vector                      :      0.000u      0.000s      0.000w     10 calls
HF: Form C                          :      0.017u      0.000s      0.002w     10 calls

**************************************************************************************

Host: localhost.localdomain

Timers On : Sun Dec 20 14:18:24 2020
Timers Off: Sun Dec 20 14:18:27 2020

Wall Time:        3.25 seconds

                                                       Time (seconds)
Module                                       User      System        Wall        Calls
Total PK formation time             :      0.383u      0.000s      0.232w      2 calls
HF: Form core H                     :      0.000u      0.000s      0.002w      1 calls
HF: Form S/X                        :      0.000u      0.000s      0.000w      1 calls
HF: Guess                           :      0.300u      0.000s      0.189w      1 calls
SAD Guess                           :      0.300u      0.000s      0.186w      1 calls
HF: Form G                          :      0.000u      0.000s      0.006w     11 calls
JK: D                               :      0.000u      0.000s      0.000w     46 calls
JK: USO2AO                          :      0.000u      0.000s      0.001w     46 calls
JK: JK                              :      0.000u      0.000s      0.014w     46 calls
PK computes JK                      :      0.000u      0.000s      0.014w     46 calls
JK: AO2USO                          :      0.000u      0.000s      0.001w     46 calls
HF: Form F                          :      0.000u      0.000s      0.001w     11 calls
HF: Form D                          :      0.000u      0.000s      0.000w     11 calls
HF: DIIS                            :      0.017u      0.000s      0.016w     10 calls
DIISManager::add_entry              :      0.000u      0.000s      0.002w     10 calls
DIISManager::extrapolate            :      0.000u      0.000s      0.002w     10 calls
bMatrix setup                       :      0.000u      0.000s      0.001w     10 calls
bMatrix pseudoinverse               :      0.000u      0.000s      0.001w     10 calls
New vector                          :      0.000u      0.000s      0.000w     10 calls
HF: Form C                          :      0.000u      0.000s      0.002w     10 calls

--------------------------------------------------------------------------------------
Total PK formation time             :      0.383u      0.000s      0.232w      2 calls
HF: Form core H                     :      0.000u      0.000s      0.002w      1 calls
HF: Form S/X                        :      0.000u      0.000s      0.000w      1 calls
HF: Guess                           :      0.300u      0.000s      0.189w      1 calls
| SAD Guess                         :      0.300u      0.000s      0.186w      1 calls
HF: Form G                          :      0.000u      0.000s      0.006w     11 calls
| JK: D                             :      0.000u      0.000s      0.000w     11 calls
| JK: USO2AO                        :      0.000u      0.000s      0.001w     11 calls
| JK: JK                            :      0.000u      0.000s      0.004w     11 calls
| | PK computes JK                  :      0.000u      0.000s      0.004w     11 calls
| JK: AO2USO                        :      0.000u      0.000s      0.001w     11 calls
HF: Form F                          :      0.000u      0.000s      0.001w     11 calls
HF: Form D                          :      0.000u      0.000s      0.000w     11 calls
HF: DIIS                            :      0.017u      0.000s      0.016w     10 calls
| DIISManager::add_entry            :      0.000u      0.000s      0.002w     10 calls
| DIISManager::extrapolate          :      0.000u      0.000s      0.002w     10 calls
| | bMatrix setup                   :      0.000u      0.000s      0.001w     10 calls
| | bMatrix pseudoinverse           :      0.000u      0.000s      0.001w     10 calls
| | New vector                      :      0.000u      0.000s      0.000w     10 calls
HF: Form C                          :      0.000u      0.000s      0.002w     10 calls
JK: D                               :      0.000u      0.000s      0.000w     35 calls
JK: USO2AO                          :      0.000u      0.000s      0.000w     35 calls
JK: JK                              :      0.000u      0.000s      0.010w     35 calls
| PK computes JK                    :      0.000u      0.000s      0.010w     35 calls
JK: AO2USO                          :      0.000u      0.000s      0.000w     35 calls

**************************************************************************************

Host: localhost.localdomain

Timers On : Mon Dec 21 14:40:40 2020
Timers Off: Mon Dec 21 14:40:43 2020

Wall Time:        2.94 seconds

                                                       Time (seconds)
Module                                       User      System        Wall        Calls
Total PK formation time             :      0.167u      0.017s      0.111w      1 calls
HF: Form core H                     :      0.000u      0.000s      0.001w      1 calls
HF: Form S/X                        :      0.000u      0.000s      0.000w      1 calls
HF: Guess                           :      0.283u      0.000s      0.173w      1 calls
SAD Guess                           :      0.283u      0.000s      0.171w      1 calls
HF: Form G                          :      0.000u      0.000s      0.007w     11 calls
JK: D                               :      0.000u      0.000s      0.000w     11 calls
JK: USO2AO                          :      0.000u      0.000s      0.001w     11 calls
JK: JK                              :      0.000u      0.000s      0.004w     11 calls
PK computes JK                      :      0.000u      0.000s      0.004w     11 calls
JK: AO2USO                          :      0.000u      0.000s      0.001w     11 calls
HF: Form F                          :      0.000u      0.000s      0.001w     11 calls
HF: Form D                          :      0.000u      0.000s      0.000w     11 calls
HF: DIIS                            :      0.017u      0.000s      0.019w     10 calls
DIISManager::add_entry              :      0.000u      0.000s      0.003w     10 calls
DIISManager::extrapolate            :      0.000u      0.000s      0.003w     10 calls
bMatrix setup                       :      0.000u      0.000s      0.001w     10 calls
bMatrix pseudoinverse               :      0.000u      0.000s      0.001w     10 calls
New vector                          :      0.000u      0.000s      0.000w     10 calls
HF: Form C                          :      0.000u      0.000s      0.002w     10 calls

--------------------------------------------------------------------------------------
Total PK formation time             :      0.167u      0.017s      0.111w      1 calls
HF: Form core H                     :      0.000u      0.000s      0.001w      1 calls
HF: Form S/X                        :      0.000u      0.000s      0.000w      1 calls
HF: Guess                           :      0.283u      0.000s      0.173w      1 calls
| SAD Guess                         :      0.283u      0.000s      0.171w      1 calls
HF: Form G                          :      0.000u      0.000s      0.007w     11 calls
| JK: D                             :      0.000u      0.000s      0.000w     11 calls
| JK: USO2AO                        :      0.000u      0.000s      0.001w     11 calls
| JK: JK                            :      0.000u      0.000s      0.004w     11 calls
| | PK computes JK                  :      0.000u      0.000s      0.004w     11 calls
| JK: AO2USO                        :      0.000u      0.000s      0.001w     11 calls
HF: Form F                          :      0.000u      0.000s      0.001w     11 calls
HF: Form D                          :      0.000u      0.000s      0.000w     11 calls
HF: DIIS                            :      0.017u      0.000s      0.019w     10 calls
| DIISManager::add_entry            :      0.000u      0.000s      0.003w     10 calls
| DIISManager::extrapolate          :      0.000u      0.000s      0.003w     10 calls
| | bMatrix setup                   :      0.000u      0.000s      0.001w     10 calls
| | bMatrix pseudoinverse           :      0.000u      0.000s      0.001w     10 calls
| | New vector                      :      0.000u      0.000s      0.000w     10 calls
HF: Form C                          :      0.000u      0.000s      0.002w     10 calls

**************************************************************************************

Host: localhost.localdomain

Timers On : Mon Dec 21 14:57:55 2020
Timers Off: Mon Dec 21 14:57:57 2020

Wall Time:        2.81 seconds

                                                       Time (seconds)
Module                                       User      System        Wall        Calls
Total PK formation time             :      0.183u      0.000s      0.108w      1 calls
HF: Form core H                     :      0.000u      0.017s      0.001w      1 calls
HF: Form S/X                        :      0.000u      0.000s      0.000w      1 calls
HF: Guess                           :      0.267u      0.000s      0.170w      1 calls
SAD Guess                           :      0.267u      0.000s      0.167w      1 calls
HF: Form G                          :      0.000u      0.000s      0.006w     11 calls
JK: D                               :      0.000u      0.000s      0.000w     11 calls
JK: USO2AO                          :      0.000u      0.000s      0.001w     11 calls
JK: JK                              :      0.000u      0.000s      0.004w     11 calls
PK computes JK                      :      0.000u      0.000s      0.004w     11 calls
JK: AO2USO                          :      0.000u      0.000s      0.001w     11 calls
HF: Form F                          :      0.000u      0.000s      0.001w     11 calls
HF: Form D                          :      0.000u      0.000s      0.000w     11 calls
HF: DIIS                            :      0.067u      0.000s      0.017w     10 calls
DIISManager::add_entry              :      0.000u      0.000s      0.003w     10 calls
DIISManager::extrapolate            :      0.033u      0.000s      0.003w     10 calls
bMatrix setup                       :      0.000u      0.000s      0.001w     10 calls
bMatrix pseudoinverse               :      0.033u      0.000s      0.001w     10 calls
New vector                          :      0.000u      0.000s      0.000w     10 calls
HF: Form C                          :      0.000u      0.000s      0.002w     10 calls

--------------------------------------------------------------------------------------
Total PK formation time             :      0.183u      0.000s      0.108w      1 calls
HF: Form core H                     :      0.000u      0.017s      0.001w      1 calls
HF: Form S/X                        :      0.000u      0.000s      0.000w      1 calls
HF: Guess                           :      0.267u      0.000s      0.170w      1 calls
| SAD Guess                         :      0.267u      0.000s      0.167w      1 calls
HF: Form G                          :      0.000u      0.000s      0.006w     11 calls
| JK: D                             :      0.000u      0.000s      0.000w     11 calls
| JK: USO2AO                        :      0.000u      0.000s      0.001w     11 calls
| JK: JK                            :      0.000u      0.000s      0.004w     11 calls
| | PK computes JK                  :      0.000u      0.000s      0.004w     11 calls
| JK: AO2USO                        :      0.000u      0.000s      0.001w     11 calls
HF: Form F                          :      0.000u      0.000s      0.001w     11 calls
HF: Form D                          :      0.000u      0.000s      0.000w     11 calls
HF: DIIS                            :      0.067u      0.000s      0.017w     10 calls
| DIISManager::add_entry            :      0.000u      0.000s      0.003w     10 calls
| DIISManager::extrapolate          :      0.033u      0.000s      0.003w     10 calls
| | bMatrix setup                   :      0.000u      0.000s      0.001w     10 calls
| | bMatrix pseudoinverse           :      0.033u      0.000s      0.001w     10 calls
| | New vector                      :      0.000u      0.000s      0.000w     10 calls
HF: Form C                          :      0.000u      0.000s      0.002w     10 calls

**************************************************************************************

Host: localhost.localdomain

Timers On : Mon Dec 21 15:01:54 2020
Timers Off: Mon Dec 21 15:01:57 2020

Wall Time:        2.84 seconds

                                                       Time (seconds)
Module                                       User      System        Wall        Calls
Total PK formation time             :      0.183u      0.000s      0.110w      1 calls
HF: Form core H                     :      0.000u      0.017s      0.001w      1 calls
HF: Form S/X                        :      0.000u      0.000s      0.000w      1 calls
HF: Guess                           :      0.283u      0.000s      0.171w      1 calls
SAD Guess                           :      0.283u      0.000s      0.169w      1 calls
HF: Form G                          :      0.017u      0.000s      0.007w     11 calls
JK: D                               :      0.000u      0.000s      0.000w     11 calls
JK: USO2AO                          :      0.000u      0.000s      0.001w     11 calls
JK: JK                              :      0.017u      0.000s      0.004w     11 calls
PK computes JK                      :      0.017u      0.000s      0.004w     11 calls
JK: AO2USO                          :      0.000u      0.000s      0.001w     11 calls
HF: Form F                          :      0.000u      0.000s      0.001w     11 calls
HF: Form D                          :      0.000u      0.000s      0.000w     11 calls
HF: DIIS                            :      0.033u      0.000s      0.019w     10 calls
DIISManager::add_entry              :      0.000u      0.000s      0.003w     10 calls
DIISManager::extrapolate            :      0.000u      0.000s      0.003w     10 calls
bMatrix setup                       :      0.000u      0.000s      0.001w     10 calls
bMatrix pseudoinverse               :      0.000u      0.000s      0.001w     10 calls
New vector                          :      0.000u      0.000s      0.000w     10 calls
HF: Form C                          :      0.000u      0.000s      0.002w     10 calls

--------------------------------------------------------------------------------------
Total PK formation time             :      0.183u      0.000s      0.110w      1 calls
HF: Form core H                     :      0.000u      0.017s      0.001w      1 calls
HF: Form S/X                        :      0.000u      0.000s      0.000w      1 calls
HF: Guess                           :      0.283u      0.000s      0.171w      1 calls
| SAD Guess                         :      0.283u      0.000s      0.169w      1 calls
HF: Form G                          :      0.017u      0.000s      0.007w     11 calls
| JK: D                             :      0.000u      0.000s      0.000w     11 calls
| JK: USO2AO                        :      0.000u      0.000s      0.001w     11 calls
| JK: JK                            :      0.017u      0.000s      0.004w     11 calls
| | PK computes JK                  :      0.017u      0.000s      0.004w     11 calls
| JK: AO2USO                        :      0.000u      0.000s      0.001w     11 calls
HF: Form F                          :      0.000u      0.000s      0.001w     11 calls
HF: Form D                          :      0.000u      0.000s      0.000w     11 calls
HF: DIIS                            :      0.033u      0.000s      0.019w     10 calls
| DIISManager::add_entry            :      0.000u      0.000s      0.003w     10 calls
| DIISManager::extrapolate          :      0.000u      0.000s      0.003w     10 calls
| | bMatrix setup                   :      0.000u      0.000s      0.001w     10 calls
| | bMatrix pseudoinverse           :      0.000u      0.000s      0.001w     10 calls
| | New vector                      :      0.000u      0.000s      0.000w     10 calls
HF: Form C                          :      0.000u      0.000s      0.002w     10 calls

**************************************************************************************

Host: localhost.localdomain

Timers On : Mon Dec 21 15:09:43 2020
Timers Off: Mon Dec 21 15:09:46 2020

Wall Time:        2.88 seconds

                                                       Time (seconds)
Module                                       User      System        Wall        Calls
Total PK formation time             :      0.183u      0.000s      0.110w      1 calls
HF: Form core H                     :      0.000u      0.000s      0.001w      1 calls
HF: Form S/X                        :      0.000u      0.000s      0.000w      1 calls
HF: Guess                           :      0.283u      0.000s      0.172w      1 calls
SAD Guess                           :      0.283u      0.000s      0.170w      1 calls
HF: Form G                          :      0.033u      0.000s      0.007w     11 calls
JK: D                               :      0.017u      0.000s      0.000w     11 calls
JK: USO2AO                          :      0.017u      0.000s      0.001w     11 calls
JK: JK                              :      0.000u      0.000s      0.004w     11 calls
PK computes JK                      :      0.000u      0.000s      0.004w     11 calls
JK: AO2USO                          :      0.000u      0.000s      0.001w     11 calls
HF: Form F                          :      0.000u      0.000s      0.001w     11 calls
HF: Form D                          :      0.000u      0.000s      0.000w     11 calls
HF: DIIS                            :      0.050u      0.000s      0.019w     10 calls
DIISManager::add_entry              :      0.017u      0.000s      0.003w     10 calls
DIISManager::extrapolate            :      0.000u      0.000s      0.003w     10 calls
bMatrix setup                       :      0.000u      0.000s      0.001w     10 calls
bMatrix pseudoinverse               :      0.000u      0.000s      0.001w     10 calls
New vector                          :      0.000u      0.000s      0.000w     10 calls
HF: Form C                          :      0.000u      0.000s      0.002w     10 calls

--------------------------------------------------------------------------------------
Total PK formation time             :      0.183u      0.000s      0.110w      1 calls
HF: Form core H                     :      0.000u      0.000s      0.001w      1 calls
HF: Form S/X                        :      0.000u      0.000s      0.000w      1 calls
HF: Guess                           :      0.283u      0.000s      0.172w      1 calls
| SAD Guess                         :      0.283u      0.000s      0.170w      1 calls
HF: Form G                          :      0.033u      0.000s      0.007w     11 calls
| JK: D                             :      0.017u      0.000s      0.000w     11 calls
| JK: USO2AO                        :      0.017u      0.000s      0.001w     11 calls
| JK: JK                            :      0.000u      0.000s      0.004w     11 calls
| | PK computes JK                  :      0.000u      0.000s      0.004w     11 calls
| JK: AO2USO                        :      0.000u      0.000s      0.001w     11 calls
HF: Form F                          :      0.000u      0.000s      0.001w     11 calls
HF: Form D                          :      0.000u      0.000s      0.000w     11 calls
HF: DIIS                            :      0.050u      0.000s      0.019w     10 calls
| DIISManager::add_entry            :      0.017u      0.000s      0.003w     10 calls
| DIISManager::extrapolate          :      0.000u      0.000s      0.003w     10 calls
| | bMatrix setup                   :      0.000u      0.000s      0.001w     10 calls
| | bMatrix pseudoinverse           :      0.000u      0.000s      0.001w     10 calls
| | New vector                      :      0.000u      0.000s      0.000w     10 calls
HF: Form C                          :      0.000u      0.000s      0.002w     10 calls

**************************************************************************************

Host: localhost.localdomain

Timers On : Mon Dec 21 15:14:19 2020
Timers Off: Mon Dec 21 15:14:22 2020

Wall Time:        2.86 seconds

                                                       Time (seconds)
Module                                       User      System        Wall        Calls
Total PK formation time             :      0.183u      0.017s      0.105w      1 calls
HF: Form core H                     :      0.000u      0.000s      0.001w      1 calls
HF: Form S/X                        :      0.000u      0.000s      0.000w      1 calls
HF: Guess                           :      0.283u      0.000s      0.171w      1 calls
SAD Guess                           :      0.283u      0.000s      0.169w      1 calls
HF: Form G                          :      0.017u      0.000s      0.006w     11 calls
JK: D                               :      0.000u      0.000s      0.000w     11 calls
JK: USO2AO                          :      0.000u      0.000s      0.001w     11 calls
JK: JK                              :      0.017u      0.000s      0.004w     11 calls
PK computes JK                      :      0.017u      0.000s      0.004w     11 calls
JK: AO2USO                          :      0.000u      0.000s      0.001w     11 calls
HF: Form F                          :      0.000u      0.000s      0.001w     11 calls
HF: Form D                          :      0.000u      0.000s      0.000w     11 calls
HF: DIIS                            :      0.033u      0.000s      0.018w     10 calls
DIISManager::add_entry              :      0.000u      0.000s      0.003w     10 calls
DIISManager::extrapolate            :      0.017u      0.000s      0.003w     10 calls
bMatrix setup                       :      0.000u      0.000s      0.001w     10 calls
bMatrix pseudoinverse               :      0.017u      0.000s      0.001w     10 calls
New vector                          :      0.000u      0.000s      0.000w     10 calls
HF: Form C                          :      0.000u      0.000s      0.002w     10 calls

--------------------------------------------------------------------------------------
Total PK formation time             :      0.183u      0.017s      0.105w      1 calls
HF: Form core H                     :      0.000u      0.000s      0.001w      1 calls
HF: Form S/X                        :      0.000u      0.000s      0.000w      1 calls
HF: Guess                           :      0.283u      0.000s      0.171w      1 calls
| SAD Guess                         :      0.283u      0.000s      0.169w      1 calls
HF: Form G                          :      0.017u      0.000s      0.006w     11 calls
| JK: D                             :      0.000u      0.000s      0.000w     11 calls
| JK: USO2AO                        :      0.000u      0.000s      0.001w     11 calls
| JK: JK                            :      0.017u      0.000s      0.004w     11 calls
| | PK computes JK                  :      0.017u      0.000s      0.004w     11 calls
| JK: AO2USO                        :      0.000u      0.000s      0.001w     11 calls
HF: Form F                          :      0.000u      0.000s      0.001w     11 calls
HF: Form D                          :      0.000u      0.000s      0.000w     11 calls
HF: DIIS                            :      0.033u      0.000s      0.018w     10 calls
| DIISManager::add_entry            :      0.000u      0.000s      0.003w     10 calls
| DIISManager::extrapolate          :      0.017u      0.000s      0.003w     10 calls
| | bMatrix setup                   :      0.000u      0.000s      0.001w     10 calls
| | bMatrix pseudoinverse           :      0.017u      0.000s      0.001w     10 calls
| | New vector                      :      0.000u      0.000s      0.000w     10 calls
HF: Form C                          :      0.000u      0.000s      0.002w     10 calls

**************************************************************************************

Host: localhost.localdomain

Timers On : Mon Dec 21 16:40:53 2020
Timers Off: Mon Dec 21 16:40:59 2020

Wall Time:        5.78 seconds

                                                       Time (seconds)
Module                                       User      System        Wall        Calls
Total PK formation time             :      0.183u      0.000s      0.153w      1 calls
HF: Form core H                     :      0.000u      0.000s      0.001w      1 calls
HF: Form S/X                        :      0.000u      0.000s      0.000w      1 calls
HF: Guess                           :      0.283u      0.000s      0.176w      1 calls
SAD Guess                           :      0.283u      0.000s      0.174w      1 calls
HF: Form G                          :      0.000u      0.000s      0.008w     11 calls
JK: D                               :      0.000u      0.000s      0.000w     11 calls
JK: USO2AO                          :      0.000u      0.000s      0.001w     11 calls
JK: JK                              :      0.000u      0.000s      0.005w     11 calls
PK computes JK                      :      0.000u      0.000s      0.005w     11 calls
JK: AO2USO                          :      0.000u      0.000s      0.001w     11 calls
HF: Form F                          :      0.000u      0.000s      0.001w     11 calls
HF: Form D                          :      0.000u      0.000s      0.000w     11 calls
HF: DIIS                            :      0.017u      0.017s      0.020w     10 calls
DIISManager::add_entry              :      0.000u      0.000s      0.003w     10 calls
DIISManager::extrapolate            :      0.000u      0.000s      0.003w     10 calls
bMatrix setup                       :      0.000u      0.000s      0.001w     10 calls
bMatrix pseudoinverse               :      0.000u      0.000s      0.001w     10 calls
New vector                          :      0.000u      0.000s      0.001w     10 calls
HF: Form C                          :      0.000u      0.000s      0.002w     10 calls

--------------------------------------------------------------------------------------
Total PK formation time             :      0.183u      0.000s      0.153w      1 calls
HF: Form core H                     :      0.000u      0.000s      0.001w      1 calls
HF: Form S/X                        :      0.000u      0.000s      0.000w      1 calls
HF: Guess                           :      0.283u      0.000s      0.176w      1 calls
| SAD Guess                         :      0.283u      0.000s      0.174w      1 calls
HF: Form G                          :      0.000u      0.000s      0.008w     11 calls
| JK: D                             :      0.000u      0.000s      0.000w     11 calls
| JK: USO2AO                        :      0.000u      0.000s      0.001w     11 calls
| JK: JK                            :      0.000u      0.000s      0.005w     11 calls
| | PK computes JK                  :      0.000u      0.000s      0.005w     11 calls
| JK: AO2USO                        :      0.000u      0.000s      0.001w     11 calls
HF: Form F                          :      0.000u      0.000s      0.001w     11 calls
HF: Form D                          :      0.000u      0.000s      0.000w     11 calls
HF: DIIS                            :      0.017u      0.017s      0.020w     10 calls
| DIISManager::add_entry            :      0.000u      0.000s      0.003w     10 calls
| DIISManager::extrapolate          :      0.000u      0.000s      0.003w     10 calls
| | bMatrix setup                   :      0.000u      0.000s      0.001w     10 calls
| | bMatrix pseudoinverse           :      0.000u      0.000s      0.001w     10 calls
| | New vector                      :      0.000u      0.000s      0.001w     10 calls
HF: Form C                          :      0.000u      0.000s      0.002w     10 calls

**************************************************************************************

Host: localhost.localdomain

Timers On : Mon Dec 21 16:48:38 2020
Timers Off: Mon Dec 21 16:48:41 2020

Wall Time:        2.87 seconds

                                                       Time (seconds)
Module                                       User      System        Wall        Calls
Total PK formation time             :      0.183u      0.000s      0.114w      1 calls
HF: Form core H                     :      0.000u      0.000s      0.001w      1 calls
HF: Form S/X                        :      0.000u      0.000s      0.000w      1 calls
HF: Guess                           :      0.283u      0.000s      0.171w      1 calls
SAD Guess                           :      0.267u      0.000s      0.169w      1 calls
HF: Form G                          :      0.000u      0.000s      0.005w     11 calls
JK: D                               :      0.000u      0.000s      0.000w     11 calls
JK: USO2AO                          :      0.000u      0.000s      0.001w     11 calls
JK: JK                              :      0.000u      0.000s      0.003w     11 calls
PK computes JK                      :      0.000u      0.000s      0.003w     11 calls
JK: AO2USO                          :      0.000u      0.000s      0.001w     11 calls
HF: Form F                          :      0.000u      0.000s      0.001w     11 calls
HF: Form D                          :      0.000u      0.000s      0.000w     11 calls
HF: DIIS                            :      0.017u      0.000s      0.015w     10 calls
DIISManager::add_entry              :      0.000u      0.000s      0.002w     10 calls
DIISManager::extrapolate            :      0.017u      0.000s      0.002w     10 calls
bMatrix setup                       :      0.000u      0.000s      0.001w     10 calls
bMatrix pseudoinverse               :      0.017u      0.000s      0.001w     10 calls
New vector                          :      0.000u      0.000s      0.000w     10 calls
HF: Form C                          :      0.000u      0.000s      0.002w     10 calls

--------------------------------------------------------------------------------------
Total PK formation time             :      0.183u      0.000s      0.114w      1 calls
HF: Form core H                     :      0.000u      0.000s      0.001w      1 calls
HF: Form S/X                        :      0.000u      0.000s      0.000w      1 calls
HF: Guess                           :      0.283u      0.000s      0.171w      1 calls
| SAD Guess                         :      0.267u      0.000s      0.169w      1 calls
HF: Form G                          :      0.000u      0.000s      0.005w     11 calls
| JK: D                             :      0.000u      0.000s      0.000w     11 calls
| JK: USO2AO                        :      0.000u      0.000s      0.001w     11 calls
| JK: JK                            :      0.000u      0.000s      0.003w     11 calls
| | PK computes JK                  :      0.000u      0.000s      0.003w     11 calls
| JK: AO2USO                        :      0.000u      0.000s      0.001w     11 calls
HF: Form F                          :      0.000u      0.000s      0.001w     11 calls
HF: Form D                          :      0.000u      0.000s      0.000w     11 calls
HF: DIIS                            :      0.017u      0.000s      0.015w     10 calls
| DIISManager::add_entry            :      0.000u      0.000s      0.002w     10 calls
| DIISManager::extrapolate          :      0.017u      0.000s      0.002w     10 calls
| | bMatrix setup                   :      0.000u      0.000s      0.001w     10 calls
| | bMatrix pseudoinverse           :      0.017u      0.000s      0.001w     10 calls
| | New vector                      :      0.000u      0.000s      0.000w     10 calls
HF: Form C                          :      0.000u      0.000s      0.002w     10 calls

**************************************************************************************

Host: localhost.localdomain

Timers On : Mon Dec 21 16:50:28 2020
Timers Off: Mon Dec 21 16:50:31 2020

Wall Time:        3.29 seconds

                                                       Time (seconds)
Module                                       User      System        Wall        Calls
Total PK formation time             :      0.183u      0.017s      0.109w      1 calls
HF: Form core H                     :      0.000u      0.000s      0.006w      1 calls
HF: Form S/X                        :      0.000u      0.017s      0.010w      1 calls
HF: Guess                           :      0.300u      0.033s      0.203w      1 calls
SAD Guess                           :      0.283u      0.000s      0.173w      1 calls
HF: Form G                          :      0.017u      0.000s      0.006w     11 calls
JK: D                               :      0.000u      0.000s      0.000w     11 calls
JK: USO2AO                          :      0.000u      0.000s      0.001w     11 calls
JK: JK                              :      0.017u      0.000s      0.003w     11 calls
PK computes JK                      :      0.017u      0.000s      0.003w     11 calls
JK: AO2USO                          :      0.000u      0.000s      0.001w     11 calls
HF: Form F                          :      0.017u      0.000s      0.001w     11 calls
HF: Form D                          :      0.000u      0.000s      0.000w     11 calls
HF: DIIS                            :      0.000u      0.017s      0.019w     10 calls
DIISManager::add_entry              :      0.000u      0.000s      0.002w     10 calls
DIISManager::extrapolate            :      0.000u      0.000s      0.004w     10 calls
bMatrix setup                       :      0.000u      0.000s      0.001w     10 calls
bMatrix pseudoinverse               :      0.000u      0.000s      0.001w     10 calls
New vector                          :      0.000u      0.000s      0.002w     10 calls
HF: Form C                          :      0.000u      0.000s      0.005w     10 calls

--------------------------------------------------------------------------------------
Total PK formation time             :      0.183u      0.017s      0.109w      1 calls
HF: Form core H                     :      0.000u      0.000s      0.006w      1 calls
HF: Form S/X                        :      0.000u      0.017s      0.010w      1 calls
HF: Guess                           :      0.300u      0.033s      0.203w      1 calls
| SAD Guess                         :      0.283u      0.000s      0.173w      1 calls
HF: Form G                          :      0.017u      0.000s      0.006w     11 calls
| JK: D                             :      0.000u      0.000s      0.000w     11 calls
| JK: USO2AO                        :      0.000u      0.000s      0.001w     11 calls
| JK: JK                            :      0.017u      0.000s      0.003w     11 calls
| | PK computes JK                  :      0.017u      0.000s      0.003w     11 calls
| JK: AO2USO                        :      0.000u      0.000s      0.001w     11 calls
[...]
| | PK computes JK                  :      0.000u      0.000s      0.005w     12 calls
| JK: AO2USO                        :      0.000u      0.000s      0.001w     12 calls
HF: Form F                          :      0.000u      0.000s      0.001w     12 calls
HF: DIIS                            :      0.033u      0.000s      0.019w     12 calls
| DIISManager::add_entry            :      0.000u      0.000s      0.003w     12 calls
| DIISManager::extrapolate          :      0.000u      0.000s      0.003w     12 calls
| | bMatrix setup                   :      0.000u      0.000s      0.001w     12 calls
| | bMatrix pseudoinverse           :      0.000u      0.000s      0.001w     12 calls
| | New vector                      :      0.000u      0.000s      0.001w     12 calls
HF: Form C                          :      0.000u      0.000s      0.003w     12 calls
HF: Form D                          :      0.000u      0.000s      0.000w     12 calls

**************************************************************************************

Host: localhost.localdomain

Timers On : Tue Dec 22 18:44:58 2020
Timers Off: Tue Dec 22 18:45:02 2020

Wall Time:        4.09 seconds

                                                       Time (seconds)
Module                                       User      System        Wall        Calls
Total PK formation time             :      0.183u      0.017s      0.119w      1 calls
HF: Form core H                     :      0.000u      0.000s      0.001w      1 calls
HF: Form S/X                        :      0.000u      0.000s      0.000w      1 calls
HF: Guess                           :      0.000u      0.000s      0.000w      1 calls
HF: Form G                          :      0.000u      0.000s      0.006w     12 calls
JK: D                               :      0.000u      0.000s      0.000w     12 calls
JK: USO2AO                          :      0.000u      0.000s      0.001w     12 calls
JK: JK                              :      0.000u      0.000s      0.004w     12 calls
PK computes JK                      :      0.000u      0.000s      0.004w     12 calls
JK: AO2USO                          :      0.000u      0.000s      0.001w     12 calls
HF: Form F                          :      0.000u      0.000s      0.001w     12 calls
HF: DIIS                            :      0.050u      0.000s      0.018w     12 calls
DIISManager::add_entry              :      0.000u      0.000s      0.003w     12 calls
DIISManager::extrapolate            :      0.000u      0.000s      0.003w     12 calls
bMatrix setup                       :      0.000u      0.000s      0.001w     12 calls
bMatrix pseudoinverse               :      0.000u      0.000s      0.001w     12 calls
New vector                          :      0.000u      0.000s      0.000w     12 calls
HF: Form C                          :      0.000u      0.000s      0.003w     12 calls
HF: Form D                          :      0.000u      0.000s      0.000w     12 calls

--------------------------------------------------------------------------------------
Total PK formation time             :      0.183u      0.017s      0.119w      1 calls
HF: Form core H                     :      0.000u      0.000s      0.001w      1 calls
HF: Form S/X                        :      0.000u      0.000s      0.000w      1 calls
HF: Guess                           :      0.000u      0.000s      0.000w      1 calls
HF: Form G                          :      0.000u      0.000s      0.006w     12 calls
| JK: D                             :      0.000u      0.000s      0.000w     12 calls
| JK: USO2AO                        :      0.000u      0.000s      0.001w     12 calls
| JK: JK                            :      0.000u      0.000s      0.004w     12 calls
| | PK computes JK                  :      0.000u      0.000s      0.004w     12 calls
| JK: AO2USO                        :      0.000u      0.000s      0.001w     12 calls
HF: Form F                          :      0.000u      0.000s      0.001w     12 calls
HF: DIIS                            :      0.050u      0.000s      0.018w     12 calls
| DIISManager::add_entry            :      0.000u      0.000s      0.003w     12 calls
| DIISManager::extrapolate          :      0.000u      0.000s      0.003w     12 calls
| | bMatrix setup                   :      0.000u      0.000s      0.001w     12 calls
| | bMatrix pseudoinverse           :      0.000u      0.000s      0.001w     12 calls
| | New vector                      :      0.000u      0.000s      0.000w     12 calls
HF: Form C                          :      0.000u      0.000s      0.003w     12 calls
HF: Form D                          :      0.000u      0.000s      0.000w     12 calls

**************************************************************************************

Host: localhost.localdomain

Timers On : Wed Dec 23 11:30:38 2020
Timers Off: Wed Dec 23 11:30:46 2020

Wall Time:        8.23 seconds

                                                       Time (seconds)
Module                                       User      System        Wall        Calls
Total PK formation time             :      0.183u      0.000s      0.179w      1 calls
HF: Form core H                     :      0.000u      0.000s      0.001w      1 calls
HF: Form S/X                        :      0.000u      0.000s      0.000w      1 calls
HF: Guess                           :      0.000u      0.000s      0.000w      1 calls
HF: Form G                          :      0.017u      0.000s      0.006w     12 calls
JK: D                               :      0.000u      0.000s      0.000w     12 calls
JK: USO2AO                          :      0.000u      0.000s      0.001w     12 calls
JK: JK                              :      0.017u      0.000s      0.004w     12 calls
PK computes JK                      :      0.017u      0.000s      0.004w     12 calls
JK: AO2USO                          :      0.000u      0.000s      0.001w     12 calls
HF: Form F                          :      0.000u      0.000s      0.001w     12 calls
HF: DIIS                            :      0.033u      0.000s      0.019w     12 calls
DIISManager::add_entry              :      0.000u      0.000s      0.003w     12 calls
DIISManager::extrapolate            :      0.017u      0.000s      0.003w     12 calls
bMatrix setup                       :      0.017u      0.000s      0.001w     12 calls
bMatrix pseudoinverse               :      0.000u      0.000s      0.001w     12 calls
New vector                          :      0.000u      0.000s      0.001w     12 calls
HF: Form C                          :      0.000u      0.000s      0.003w     12 calls
HF: Form D                          :      0.000u      0.000s      0.000w     12 calls

--------------------------------------------------------------------------------------
Total PK formation time             :      0.183u      0.000s      0.179w      1 calls
HF: Form core H                     :      0.000u      0.000s      0.001w      1 calls
HF: Form S/X                        :      0.000u      0.000s      0.000w      1 calls
HF: Guess                           :      0.000u      0.000s      0.000w      1 calls
HF: Form G                          :      0.017u      0.000s      0.006w     12 calls
| JK: D                             :      0.000u      0.000s      0.000w     12 calls
| JK: USO2AO                        :      0.000u      0.000s      0.001w     12 calls
| JK: JK                            :      0.017u      0.000s      0.004w     12 calls
| | PK computes JK                  :      0.017u      0.000s      0.004w     12 calls
| JK: AO2USO                        :      0.000u      0.000s      0.001w     12 calls
HF: Form F                          :      0.000u      0.000s      0.001w     12 calls
HF: DIIS                            :      0.033u      0.000s      0.019w     12 calls
| DIISManager::add_entry            :      0.000u      0.000s      0.003w     12 calls
| DIISManager::extrapolate          :      0.017u      0.000s      0.003w     12 calls
| | bMatrix setup                   :      0.017u      0.000s      0.001w     12 calls
| | bMatrix pseudoinverse           :      0.000u      0.000s      0.001w     12 calls
| | New vector                      :      0.000u      0.000s      0.001w     12 calls
HF: Form C                          :      0.000u      0.000s      0.003w     12 calls
HF: Form D                          :      0.000u      0.000s      0.000w     12 calls

**************************************************************************************

Host: localhost.localdomain

Timers On : Wed Dec 23 11:52:20 2020
Timers Off: Wed Dec 23 11:52:24 2020

Wall Time:        4.12 seconds

                                                       Time (seconds)
Module                                       User      System        Wall        Calls
Total PK formation time             :      0.183u      0.000s      0.116w      1 calls
HF: Form core H                     :      0.000u      0.000s      0.001w      1 calls
HF: Form S/X                        :      0.000u      0.000s      0.000w      1 calls
HF: Guess                           :      0.000u      0.000s      0.000w      1 calls
HF: Form G                          :      0.000u      0.000s      0.006w     12 calls
JK: D                               :      0.000u      0.000s      0.000w     12 calls
JK: USO2AO                          :      0.000u      0.000s      0.001w     12 calls
JK: JK                              :      0.000u      0.000s      0.004w     12 calls
PK computes JK                      :      0.000u      0.000s      0.004w     12 calls
JK: AO2USO                          :      0.000u      0.000s      0.001w     12 calls
HF: Form F                          :      0.017u      0.000s      0.001w     12 calls
HF: DIIS                            :      0.017u      0.000s      0.018w     12 calls
DIISManager::add_entry              :      0.000u      0.000s      0.003w     12 calls
DIISManager::extrapolate            :      0.000u      0.000s      0.003w     12 calls
bMatrix setup                       :      0.000u      0.000s      0.001w     12 calls
bMatrix pseudoinverse               :      0.000u      0.000s      0.001w     12 calls
New vector                          :      0.000u      0.000s      0.000w     12 calls
HF: Form C                          :      0.000u      0.000s      0.003w     12 calls
HF: Form D                          :      0.017u      0.000s      0.000w     12 calls

--------------------------------------------------------------------------------------
Total PK formation time             :      0.183u      0.000s      0.116w      1 calls
HF: Form core H                     :      0.000u      0.000s      0.001w      1 calls
HF: Form S/X                        :      0.000u      0.000s      0.000w      1 calls
HF: Guess                           :      0.000u      0.000s      0.000w      1 calls
HF: Form G                          :      0.000u      0.000s      0.006w     12 calls
| JK: D                             :      0.000u      0.000s      0.000w     12 calls
| JK: USO2AO                        :      0.000u      0.000s      0.001w     12 calls
| JK: JK                            :      0.000u      0.000s      0.004w     12 calls
| | PK computes JK                  :      0.000u      0.000s      0.004w     12 calls
| JK: AO2USO                        :      0.000u      0.000s      0.001w     12 calls
HF: Form F                          :      0.017u      0.000s      0.001w     12 calls
HF: DIIS                            :      0.017u      0.000s      0.018w     12 calls
| DIISManager::add_entry            :      0.000u      0.000s      0.003w     12 calls
| DIISManager::extrapolate          :      0.000u      0.000s      0.003w     12 calls
| | bMatrix setup                   :      0.000u      0.000s      0.001w     12 calls
| | bMatrix pseudoinverse           :      0.000u      0.000s      0.001w     12 calls
| | New vector                      :      0.000u      0.000s      0.000w     12 calls
HF: Form C                          :      0.000u      0.000s      0.003w     12 calls
HF: Form D                          :      0.017u      0.000s      0.000w     12 calls

**************************************************************************************

Host: localhost.localdomain

Timers On : Wed Dec 23 11:53:51 2020
Timers Off: Wed Dec 23 11:53:55 2020

Wall Time:        4.10 seconds

                                                       Time (seconds)
Module                                       User      System        Wall        Calls
Total PK formation time             :      0.200u      0.000s      0.115w      1 calls
HF: Form core H                     :      0.000u      0.000s      0.001w      1 calls
HF: Form S/X                        :      0.000u      0.000s      0.000w      1 calls
HF: Guess                           :      0.000u      0.000s      0.000w      1 calls
HF: Form G                          :      0.033u      0.000s      0.006w     12 calls
JK: D                               :      0.000u      0.000s      0.000w     12 calls
JK: USO2AO                          :      0.000u      0.000s      0.001w     12 calls
JK: JK                              :      0.033u      0.000s      0.004w     12 calls
PK computes JK                      :      0.033u      0.000s      0.004w     12 calls
JK: AO2USO                          :      0.000u      0.000s      0.001w     12 calls
HF: Form F                          :      0.000u      0.000s      0.001w     12 calls
HF: DIIS                            :      0.017u      0.017s      0.018w     12 calls
DIISManager::add_entry              :      0.000u      0.000s      0.003w     12 calls
DIISManager::extrapolate            :      0.000u      0.000s      0.003w     12 calls
bMatrix setup                       :      0.000u      0.000s      0.001w     12 calls
bMatrix pseudoinverse               :      0.000u      0.000s      0.001w     12 calls
New vector                          :      0.000u      0.000s      0.000w     12 calls
HF: Form C                          :      0.017u      0.000s      0.003w     12 calls
HF: Form D                          :      0.000u      0.000s      0.000w     12 calls

--------------------------------------------------------------------------------------
Total PK formation time             :      0.200u      0.000s      0.115w      1 calls
HF: Form core H                     :      0.000u      0.000s      0.001w      1 calls
HF: Form S/X                        :      0.000u      0.000s      0.000w      1 calls
HF: Guess                           :      0.000u      0.000s      0.000w      1 calls
HF: Form G                          :      0.033u      0.000s      0.006w     12 calls
| JK: D                             :      0.000u      0.000s      0.000w     12 calls
| JK: USO2AO                        :      0.000u      0.000s      0.001w     12 calls
| JK: JK                            :      0.033u      0.000s      0.004w     12 calls
| | PK computes JK                  :      0.033u      0.000s      0.004w     12 calls
| JK: AO2USO                        :      0.000u      0.000s      0.001w     12 calls
HF: Form F                          :      0.000u      0.000s      0.001w     12 calls
HF: DIIS                            :      0.017u      0.017s      0.018w     12 calls
| DIISManager::add_entry            :      0.000u      0.000s      0.003w     12 calls
| DIISManager::extrapolate          :      0.000u      0.000s      0.003w     12 calls
| | bMatrix setup                   :      0.000u      0.000s      0.001w     12 calls
| | bMatrix pseudoinverse           :      0.000u      0.000s      0.001w     12 calls
| | New vector                      :      0.000u      0.000s      0.000w     12 calls
HF: Form C                          :      0.017u      0.000s      0.003w     12 calls
HF: Form D                          :      0.000u      0.000s      0.000w     12 calls

**************************************************************************************

Host: localhost.localdomain

Timers On : Wed Dec 23 15:09:42 2020
Timers Off: Wed Dec 23 15:09:46 2020

Wall Time:        3.42 seconds

                                                       Time (seconds)
Module                                       User      System        Wall        Calls
Total PK formation time             :      0.200u      0.000s      0.114w      1 calls
HF: Form core H                     :      0.000u      0.000s      0.001w      1 calls
HF: Form S/X                        :      0.000u      0.000s      0.000w      1 calls
HF: Guess                           :      0.000u      0.000s      0.000w      1 calls
HF: Form G                          :      0.000u      0.017s      0.006w     12 calls
JK: D                               :      0.000u      0.000s      0.000w     12 calls
JK: USO2AO                          :      0.000u      0.017s      0.001w     12 calls
JK: JK                              :      0.000u      0.000s      0.004w     12 calls
PK computes JK                      :      0.000u      0.000s      0.004w     12 calls
JK: AO2USO                          :      0.000u      0.000s      0.001w     12 calls
HF: Form F                          :      0.000u      0.000s      0.001w     12 calls
HF: DIIS                            :      0.000u      0.000s      0.018w     12 calls
DIISManager::add_entry              :      0.000u      0.000s      0.003w     12 calls
DIISManager::extrapolate            :      0.000u      0.000s      0.003w     12 calls
bMatrix setup                       :      0.000u      0.000s      0.001w     12 calls
bMatrix pseudoinverse               :      0.000u      0.000s      0.001w     12 calls
New vector                          :      0.000u      0.000s      0.000w     12 calls
HF: Form C                          :      0.017u      0.000s      0.003w     12 calls
HF: Form D                          :      0.000u      0.000s      0.000w     12 calls

--------------------------------------------------------------------------------------
Total PK formation time             :      0.200u      0.000s      0.114w      1 calls
HF: Form core H                     :      0.000u      0.000s      0.001w      1 calls
HF: Form S/X                        :      0.000u      0.000s      0.000w      1 calls
HF: Guess                           :      0.000u      0.000s      0.000w      1 calls
HF: Form G                          :      0.000u      0.017s      0.006w     12 calls
| JK: D                             :      0.000u      0.000s      0.000w     12 calls
| JK: USO2AO                        :      0.000u      0.017s      0.001w     12 calls
| JK: JK                            :      0.000u      0.000s      0.004w     12 calls
| | PK computes JK                  :      0.000u      0.000s      0.004w     12 calls
| JK: AO2USO                        :      0.000u      0.000s      0.001w     12 calls
HF: Form F                          :      0.000u      0.000s      0.001w     12 calls
HF: DIIS                            :      0.000u      0.000s      0.018w     12 calls
| DIISManager::add_entry            :      0.000u      0.000s      0.003w     12 calls
| DIISManager::extrapolate          :      0.000u      0.000s      0.003w     12 calls
| | bMatrix setup                   :      0.000u      0.000s      0.001w     12 calls
| | bMatrix pseudoinverse           :      0.000u      0.000s      0.001w     12 calls
| | New vector                      :      0.000u      0.000s      0.000w     12 calls
HF: Form C                          :      0.017u      0.000s      0.003w     12 calls
HF: Form D                          :      0.000u      0.000s      0.000w     12 calls

**************************************************************************************
