
    -----------------------------------------------------------------------
          Psi4: An Open-Source Ab Initio Electronic Structure Package
                               Psi4 1.3.2 release

                         Git: Rev {} zzzzzzz 


    R. M. Parrish, L. A. Burns, D. G. A. Smith, A. C. Simmonett,
    A. E. DePrince III, E. G. Hohenstein, U. Bozkaya, A. Yu. Sokolov,
    R. Di Remigio, R. M. Richard, J. F. Gonthier, A. M. James,
    H. R. McAlexander, A. Kumar, M. Saitow, X. Wang, B. P. Pritchard,
    P. Verma, H. F. Schaefer III, K. Patkowski, R. A. King, E. F. Valeev,
    F. A. Evangelista, J. M. Turney, T. D. Crawford, and C. D. Sherrill,
    J. Chem. Theory Comput. 13(7) pp 3185--3197 (2017).
    (doi: 10.1021/acs.jctc.7b00174)


                         Additional Contributions by
    P. Kraus, H. Kruse, M. H. Lechner, M. C. Schieber, R. A. Shaw,
    A. Alenaizan, R. Galvelis, Z. L. Glick, S. Lehtola, and J. P. Misiewicz

    -----------------------------------------------------------------------


    Psi4 started on: Thursday, 14 January 2021 06:09PM

    Process ID: 16146
    Host:       localhost.localdomain
    PSIDATADIR: /opt/psi4-1.3.2/share/psi4
    Memory:     500.0 MiB
    Threads:    1
    
  ==> Input File <==

--------------------------------------------------------------------------
# psi4 input file
sys.path.insert(0, os.environ['PSI_PLUGIN_PATH'])
import rhf_mp2

molecule {
  0 1
  O          0.000000000000     0.000000000000    -0.065775570538
  H          0.000000000000    -0.759061990794     0.521953018295
  H          0.000000000000     0.759061990794     0.521953018295
}

set {
  basis cc-pvdz
  df_basis_scf cc-pvdz-jkfit
  df_basis_cc cc-pvdz-jkfit
  e_convergence 1.0e-8
  d_convergence 1.0e-6
  guess core
  qc_module occ
  scf_type df
}

energy('mp2')
energy('rhf_mp2')
--------------------------------------------------------------------------
    Method 'MP2' requires SCF_TYPE = DISK_DF, setting.

*** tstart() called on localhost.localdomain
*** at Thu Jan 14 18:09:35 2021

   => Loading Basis Set <=

    Name: CC-PVDZ
    Role: ORBITAL
    Keyword: BASIS
    atoms 1   entry O          line   198 file /opt/psi4-1.3.2/share/psi4/basis/cc-pvdz.gbs 
    atoms 2-3 entry H          line    22 file /opt/psi4-1.3.2/share/psi4/basis/cc-pvdz.gbs 


         ---------------------------------------------------------
                                   SCF
               by Justin Turney, Rob Parrish, Andy Simmonett
                          and Daniel G. A. Smith
                              RHF Reference
                        1 Threads,    500 MiB Core
         ---------------------------------------------------------

  ==> Geometry <==

    Molecular point group: c2v
    Full point group: C2v

    Geometry (in Angstrom), charge = 0, multiplicity = 1:

       Center              X                  Y                   Z               Mass       
    ------------   -----------------  -----------------  -----------------  -----------------
         O            0.000000000000     0.000000000000    -0.065775570547    15.994914619570
         H            0.000000000000    -0.759061990794     0.521953018286     1.007825032230
         H           -0.000000000000     0.759061990794     0.521953018286     1.007825032230

  Running in c2v symmetry.

  Rotational constants: A =     27.26297  B =     14.51533  C =      9.47217 [cm^-1]
  Rotational constants: A = 817323.21126  B = 435158.60141  C = 283968.37536 [MHz]
  Nuclear repulsion =    9.168193296425439

  Charge       = 0
  Multiplicity = 1
  Electrons    = 10
  Nalpha       = 5
  Nbeta        = 5

  ==> Algorithm <==

  SCF Algorithm Type is DISK_DF.
  DIIS enabled.
  MOM disabled.
  Fractional occupation disabled.
  Guess Type is CORE.
  Energy threshold   = 1.00e-08
  Density threshold  = 1.00e-06
  Integral threshold = 0.00e+00

  ==> Primary Basis <==

  Basis Set: CC-PVDZ
    Blend: CC-PVDZ
    Number of shells: 12
    Number of basis function: 24
    Number of Cartesian functions: 25
    Spherical Harmonics?: true
    Max angular momentum: 2

   => Loading Basis Set <=

    Name: CC-PVDZ-JKFIT
    Role: JKFIT
    Keyword: DF_BASIS_SCF
    atoms 1   entry O          line   221 file /opt/psi4-1.3.2/share/psi4/basis/cc-pvdz-jkfit.gbs 
    atoms 2-3 entry H          line    51 file /opt/psi4-1.3.2/share/psi4/basis/cc-pvdz-jkfit.gbs 

  ==> Pre-Iterations <==

   -------------------------------------------------------
    Irrep   Nso     Nmo     Nalpha   Nbeta   Ndocc  Nsocc
   -------------------------------------------------------
     A1        11      11       0       0       0       0
     A2         2       2       0       0       0       0
     B1         4       4       0       0       0       0
     B2         7       7       0       0       0       0
   -------------------------------------------------------
    Total      24      24       5       5       5       0
   -------------------------------------------------------

  ==> Integral Setup <==

  ==> DiskDFJK: Density-Fitted J/K Matrices <==

    J tasked:                  Yes
    K tasked:                  Yes
    wK tasked:                  No
    OpenMP threads:              1
    Integrals threads:           1
    Memory [MiB]:              375
    Algorithm:                Core
    Integral Cache:           SAVE
    Schwarz Cutoff:          1E-12
    Fitting Condition:       1E-10

   => Auxiliary Basis Set <=

  Basis Set: CC-PVDZ-JKFIT
    Blend: CC-PVDZ-JKFIT
    Number of shells: 42
    Number of basis function: 116
    Number of Cartesian functions: 131
    Spherical Harmonics?: true
    Max angular momentum: 3

  Minimum eigenvalue in the overlap matrix is 3.4377086613E-02.
  Using Symmetric Orthogonalization.

  SCF Guess: Core (One-Electron) Hamiltonian.

  ==> Iterations <==

                           Total Energy        Delta E     RMS |[F,P]|

    Occupation by irrep:
             A1    A2    B1    B2 
    DOCC [     3,    0,    0,    2 ]

   @DF-RHF iter   1:   -68.87679588640732   -6.88768e+01   2.24865e-01 DIIS
    Occupation by irrep:
             A1    A2    B1    B2 
    DOCC [     3,    0,    1,    1 ]

   @DF-RHF iter   2:   -69.94739929359534   -1.07060e+00   1.83983e-01 DIIS
   @DF-RHF iter   3:   -75.73846362958659   -5.79106e+00   6.30960e-02 DIIS
   @DF-RHF iter   4:   -76.00166118143510   -2.63198e-01   1.71040e-02 DIIS
   @DF-RHF iter   5:   -76.02634573509869   -2.46846e-02   1.53954e-03 DIIS
   @DF-RHF iter   6:   -76.02659024824796   -2.44513e-04   6.83100e-04 DIIS
   @DF-RHF iter   7:   -76.02663102316566   -4.07749e-05   9.57609e-05 DIIS
   @DF-RHF iter   8:   -76.02663264457831   -1.62141e-06   3.21842e-05 DIIS
   @DF-RHF iter   9:   -76.02663273432165   -8.97433e-08   1.86418e-06 DIIS
   @DF-RHF iter  10:   -76.02663273507268   -7.51029e-10   6.68973e-07 DIIS
  Energy and wave function converged.


  ==> Post-Iterations <==

    Orbital Energies [Eh]
    ---------------------

    Doubly Occupied:                                                      

       1A1   -20.550926     2A1    -1.335311     1B2    -0.697803  
       3A1    -0.566087     1B1    -0.492948  

    Virtual:                                                              

       4A1     0.185107     2B2     0.255846     3B2     0.787336  
       5A1     0.851825     6A1     1.163855     2B1     1.200424  
       4B2     1.253573     7A1     1.445290     1A2     1.476011  
       3B1     1.674661     8A1     1.868110     5B2     1.932579  
       6B2     2.446529     9A1     2.483816     4B1     3.283957  
       2A2     3.336669    10A1     3.507634    11A1     3.863420  
       7B2     4.144759  

    Final Occupation by Irrep:
             A1    A2    B1    B2 
    DOCC [     3,    0,    1,    1 ]

  @DF-RHF Final Energy:   -76.02663273507268

   => Energetics <=

    Nuclear Repulsion Energy =              9.1681932964254393
    One-Electron Energy =                -123.1034720455929659
    Two-Electron Energy =                  37.9086460140948418
    Total Energy =                        -76.0266327350726812

Computation Completed


Properties will be evaluated at   0.000000,   0.000000,   0.000000 [a0]

Properties computed using the SCF density matrix

  Nuclear Dipole Moment: [e a0]
     X:     0.0000      Y:     0.0000      Z:     0.9783

  Electronic Dipole Moment: [e a0]
     X:     0.0000      Y:     0.0000      Z:    -0.1680

  Dipole Moment: [e a0]
     X:     0.0000      Y:     0.0000      Z:     0.8103     Total:     0.8103

  Dipole Moment: [D]
     X:     0.0000      Y:     0.0000      Z:     2.0595     Total:     2.0595


*** tstop() called on localhost.localdomain at Thu Jan 14 18:09:35 2021
Module time:
	user time   =       0.49 seconds =       0.01 minutes
	system time =       0.02 seconds =       0.00 minutes
	total time  =          0 seconds =       0.00 minutes
Total time:
	user time   =       0.49 seconds =       0.01 minutes
	system time =       0.02 seconds =       0.00 minutes
	total time  =          0 seconds =       0.00 minutes

  A requested method does not make use of molecular symmetry: further calculations in C1 point group.

  Constructing Basis Sets for DFOCC...

   => Loading Basis Set <=

    Name: CC-PVDZ-JKFIT
    Role: JKFIT
    Keyword: DF_BASIS_SCF
    atoms 1   entry O          line   221 file /opt/psi4-1.3.2/share/psi4/basis/cc-pvdz-jkfit.gbs 
    atoms 2-3 entry H          line    51 file /opt/psi4-1.3.2/share/psi4/basis/cc-pvdz-jkfit.gbs 

   => Loading Basis Set <=

    Name: CC-PVDZ-JKFIT
    Role: RIFIT
    Keyword: DF_BASIS_CC
    atoms 1   entry O          line   221 file /opt/psi4-1.3.2/share/psi4/basis/cc-pvdz-jkfit.gbs 
    atoms 2-3 entry H          line    51 file /opt/psi4-1.3.2/share/psi4/basis/cc-pvdz-jkfit.gbs 


*** tstart() called on localhost.localdomain
*** at Thu Jan 14 18:09:36 2021



  Module DFOCC Options:
  ----------------------------------------------------------------------------
  ACTIVE                        => (empty)          
  BASIS_RELATIVISTIC            => (empty)          
  BENCH                         => (empty)          
  CC_DIIS_MAX_VECS              => (empty)          
  CC_DIIS_MIN_VECS              => (empty)          
  CC_LAMBDA                     => (empty)          
  CC_MAXITER                    => (empty)          
  CC_TYPE                       => (empty)          
  CHOLESKY                      => FALSE           !
  CHOLESKY_TOLERANCE            => (empty)         !
  CI_TYPE                       => (empty)         !
  COMPUT_S2                     => (empty)         !
  CUBEPROP_BASIS_FUNCTIONS      => (empty)         !
  CUBEPROP_FILEPATH             => (empty)         !
  CUBEPROP_ISOCONTOUR_THRESHOLD => (empty)         !
  CUBEPROP_ORBITALS             => (empty)         !
  CUBEPROP_TASKS                => (empty)         !
  CUBIC_BASIS_TOLERANCE         => (empty)         !
  CUBIC_BLOCK_MAX_POINTS        => (empty)         !
  CUBIC_GRID_OVERAGE            => (empty)         !
  CUBIC_GRID_SPACING            => (empty)         !
  CUTOFF                        => (empty)         !
  DEBUG                         => (empty)         !
  DERTYPE                       => (empty)         !
  DF_BASIS_CC                   => CC-PVDZ-JKFIT   !
  DIE_IF_NOT_CONVERGED          => (empty)         !
  DKH_ORDER                     => (empty)         !
  DOCC                          => (empty)         !
  DO_DIIS                       => (empty)         !
  DO_LEVEL_SHIFT                => (empty)         !
  DO_SCS                        => FALSE           !
  DO_SOS                        => FALSE           !
  E3_SCALE                      => (empty)         !
  EKT_IP                        => (empty)         !
  EXTERNAL_POTENTIAL_SYMMETRY   => (empty)         !
  E_CONVERGENCE                 => 1e-08           !
  FREEZE_CORE                   => (empty)         !
  FROZEN_DOCC                   => (empty)         !
  FROZEN_UOCC                   => (empty)         !
  HESS_TYPE                     => (empty)         !
  INTEGRAL_CUTOFF               => (empty)         !
  INTEGRAL_PACKAGE              => (empty)         !
  LEVEL_SHIFT                   => (empty)         !
  LINEQ_SOLVER                  => (empty)         !
  LITERAL_CFOUR                 => (empty)         !
  MAT_NUM_COLUMN_PRINT          => (empty)         !
  MAX_MOGRAD_CONVERGENCE        => (empty)         !
  MOLDEN_WITH_VIRTUAL           => (empty)         !
  MOLDEN_WRITE                  => (empty)         !
  MO_DIIS_NUM_VECS              => (empty)         !
  MO_MAXITER                    => (empty)         !
  MO_STEP_MAX                   => (empty)         !
  MP2_AMP_TYPE                  => (empty)         !
  MP2_OS_SCALE                  => (empty)         !
  MP2_SOS_SCALE                 => (empty)         !
  MP2_SOS_SCALE2                => (empty)         !
  MP2_SS_SCALE                  => (empty)         !
  MP2_TYPE                      => (empty)         !
  MP_TYPE                       => (empty)         !
  NAT_ORBS                      => (empty)         !
  NUM_FROZEN_DOCC               => (empty)         !
  NUM_FROZEN_UOCC               => (empty)         !
  NUM_GPUS                      => (empty)         !
  OCC_ORBS_PRINT                => (empty)         !
  OEPROP                        => (empty)         !
  OO_SCALE                      => (empty)         !
  OPT_METHOD                    => (empty)         !
  ORB_OPT                       => FALSE           !
  ORB_RESP_SOLVER               => (empty)         !
  ORTH_TYPE                     => (empty)         !
  PCG_BETA_TYPE                 => (empty)         !
  PCG_CONVERGENCE               => (empty)         !
  PCG_MAXITER                   => (empty)         !
  PCM                           => (empty)         !
  PPL_TYPE                      => (empty)         !
  PRINT                         => (empty)         !
  PRINT_NOONS                   => (empty)         !
  PROPERTIES                    => (empty)         !
  PROPERTIES_ORIGIN             => (empty)         !
  PUREAM                        => (empty)         !
  QCHF                          => (empty)         !
  QC_MODULE                     => OCC             !
  RAS1                          => (empty)         !
  RAS2                          => (empty)         !
  RAS3                          => (empty)         !
  RAS4                          => (empty)         !
  READ_SCF_3INDEX               => (empty)         !
  REGULARIZATION                => (empty)         !
  REG_PARAM                     => (empty)         !
  RELATIVISTIC                  => (empty)         !
  RESTRICTED_DOCC               => (empty)         !
  RESTRICTED_UOCC               => (empty)         !
  RMS_MOGRAD_CONVERGENCE        => (empty)         !
  R_CONVERGENCE                 => (empty)         !
  SCF_TYPE                      => DISK_DF         !
  SCS_TYPE                      => (empty)         !
  SOCC                          => (empty)         !
  SOS_TYPE                      => (empty)         !
  TRIPLES_IABC_TYPE             => (empty)         !
  WFN                           => (empty)         !
  WFN_TYPE                      => DF-OMP2         !
  WRITER_FILE_LABEL             => (empty)         !


 ============================================================================== 
 ============================================================================== 
 ============================================================================== 

                       DF-MP2   
              Program Written by Ugur Bozkaya
              Latest Revision September 9, 2017

 ============================================================================== 
 ============================================================================== 
 ============================================================================== 

	MO spaces... 

	 FC   OCC   VIR   FV 
	----------------------
	  0    5    19    0
	Number of basis functions in the DF-CC basis: 116

	Available memory                      :    500.00 MB 
	Minimum required memory for amplitudes:      0.21 MB 
	Memory requirement for B-CC (Q|mu nu) :      0.51 MB 
	Memory requirement for B-CC (Q|ab)    :      0.32 MB 
	Memory requirement for DF-CC int trans:      1.23 MB 

	Computing DF-MP2 energy using SCF MOs (Canonical DF-MP2)... 
	======================================================================= 
	Nuclear Repulsion Energy (a.u.)    :     9.16819329642544
	DF-HF Energy (a.u.)                :   -76.02663273507268
	REF Energy (a.u.)                  :   -76.02663273507268
	DF-MP2 Correlation Energy (a.u.)   :    -0.20411175048133
	DF-MP2 Total Energy (a.u.)         :   -76.23074448555401
	======================================================================= 

*** tstop() called on localhost.localdomain at Thu Jan 14 18:09:36 2021
Module time:
	user time   =       0.12 seconds =       0.00 minutes
	system time =       0.01 seconds =       0.00 minutes
	total time  =          0 seconds =       0.00 minutes
Total time:
	user time   =       0.95 seconds =       0.02 minutes
	system time =       0.03 seconds =       0.00 minutes
	total time  =          1 seconds =       0.02 minutes

*** tstart() called on localhost.localdomain
*** at Thu Jan 14 18:09:36 2021

   => Loading Basis Set <=

    Name: CC-PVDZ
    Role: ORBITAL
    Keyword: BASIS
    atoms 1   entry O          line   198 file /opt/psi4-1.3.2/share/psi4/basis/cc-pvdz.gbs 
    atoms 2-3 entry H          line    22 file /opt/psi4-1.3.2/share/psi4/basis/cc-pvdz.gbs 


         ---------------------------------------------------------
                                   SCF
               by Justin Turney, Rob Parrish, Andy Simmonett
                          and Daniel G. A. Smith
                              RHF Reference
                        1 Threads,    500 MiB Core
         ---------------------------------------------------------

  ==> Geometry <==

    Molecular point group: c2v
    Full point group: C2v

    Geometry (in Angstrom), charge = 0, multiplicity = 1:

       Center              X                  Y                   Z               Mass       
    ------------   -----------------  -----------------  -----------------  -----------------
         O            0.000000000000     0.000000000000    -0.065775570547    15.994914619570
         H            0.000000000000    -0.759061990794     0.521953018286     1.007825032230
         H           -0.000000000000     0.759061990794     0.521953018286     1.007825032230

  Running in c2v symmetry.

  Rotational constants: A =     27.26297  B =     14.51533  C =      9.47217 [cm^-1]
  Rotational constants: A = 817323.21126  B = 435158.60141  C = 283968.37536 [MHz]
  Nuclear repulsion =    9.168193296425439

  Charge       = 0
  Multiplicity = 1
  Electrons    = 10
  Nalpha       = 5
  Nbeta        = 5

  ==> Algorithm <==

  SCF Algorithm Type is DF.
  DIIS enabled.
  MOM disabled.
  Fractional occupation disabled.
  Guess Type is CORE.
  Energy threshold   = 1.00e-08
  Density threshold  = 1.00e-06
  Integral threshold = 0.00e+00

  ==> Primary Basis <==

  Basis Set: CC-PVDZ
    Blend: CC-PVDZ
    Number of shells: 12
    Number of basis function: 24
    Number of Cartesian functions: 25
    Spherical Harmonics?: true
    Max angular momentum: 2

   => Loading Basis Set <=

    Name: CC-PVDZ-JKFIT
    Role: JKFIT
    Keyword: DF_BASIS_SCF
    atoms 1   entry O          line   221 file /opt/psi4-1.3.2/share/psi4/basis/cc-pvdz-jkfit.gbs 
    atoms 2-3 entry H          line    51 file /opt/psi4-1.3.2/share/psi4/basis/cc-pvdz-jkfit.gbs 

  ==> Pre-Iterations <==

   -------------------------------------------------------
    Irrep   Nso     Nmo     Nalpha   Nbeta   Ndocc  Nsocc
   -------------------------------------------------------
     A1        11      11       0       0       0       0
     A2         2       2       0       0       0       0
     B1         4       4       0       0       0       0
     B2         7       7       0       0       0       0
   -------------------------------------------------------
    Total      24      24       5       5       5       0
   -------------------------------------------------------

  ==> Integral Setup <==

  DFHelper Memory: AOs need 0.001 GiB; user supplied 0.366 GiB. Using in-core AOs.

  ==> MemDFJK: Density-Fitted J/K Matrices <==

    J tasked:                   Yes
    K tasked:                   Yes
    wK tasked:                   No
    OpenMP threads:               1
    Memory [MiB]:               375
    Algorithm:                 Core
    Schwarz Cutoff:           1E-12
    Mask sparsity (%):       0.0000
    Fitting Condition:        1E-10

   => Auxiliary Basis Set <=

  Basis Set: CC-PVDZ-JKFIT
    Blend: CC-PVDZ-JKFIT
    Number of shells: 42
    Number of basis function: 116
    Number of Cartesian functions: 131
    Spherical Harmonics?: true
    Max angular momentum: 3

  Minimum eigenvalue in the overlap matrix is 3.4377086613E-02.
  Using Symmetric Orthogonalization.

  SCF Guess: Core (One-Electron) Hamiltonian.

  ==> Iterations <==

                           Total Energy        Delta E     RMS |[F,P]|

    Occupation by irrep:
             A1    A2    B1    B2 
    DOCC [     3,    0,    0,    2 ]

   @DF-RHF iter   1:   -68.87679588640731   -6.88768e+01   2.24865e-01 DIIS
    Occupation by irrep:
             A1    A2    B1    B2 
    DOCC [     3,    0,    1,    1 ]

   @DF-RHF iter   2:   -69.94739929359538   -1.07060e+00   1.83983e-01 DIIS
   @DF-RHF iter   3:   -75.73846362958663   -5.79106e+00   6.30960e-02 DIIS
   @DF-RHF iter   4:   -76.00166118143500   -2.63198e-01   1.71040e-02 DIIS
   @DF-RHF iter   5:   -76.02634573509860   -2.46846e-02   1.53954e-03 DIIS
   @DF-RHF iter   6:   -76.02659024824790   -2.44513e-04   6.83100e-04 DIIS
   @DF-RHF iter   7:   -76.02663102316566   -4.07749e-05   9.57609e-05 DIIS
   @DF-RHF iter   8:   -76.02663264457826   -1.62141e-06   3.21842e-05 DIIS
   @DF-RHF iter   9:   -76.02663273432165   -8.97434e-08   1.86418e-06 DIIS
   @DF-RHF iter  10:   -76.02663273507264   -7.50987e-10   6.68973e-07 DIIS
  Energy and wave function converged.


  ==> Post-Iterations <==

    Orbital Energies [Eh]
    ---------------------

    Doubly Occupied:                                                      

       1A1   -20.550926     2A1    -1.335311     1B2    -0.697803  
       3A1    -0.566087     1B1    -0.492948  

    Virtual:                                                              

       4A1     0.185107     2B2     0.255846     3B2     0.787336  
       5A1     0.851825     6A1     1.163855     2B1     1.200424  
       4B2     1.253573     7A1     1.445290     1A2     1.476011  
       3B1     1.674661     8A1     1.868110     5B2     1.932579  
       6B2     2.446529     9A1     2.483816     4B1     3.283957  
       2A2     3.336669    10A1     3.507634    11A1     3.863420  
       7B2     4.144759  

    Final Occupation by Irrep:
             A1    A2    B1    B2 
    DOCC [     3,    0,    1,    1 ]

  @DF-RHF Final Energy:   -76.02663273507264

   => Energetics <=

    Nuclear Repulsion Energy =              9.1681932964254393
    One-Electron Energy =                -123.1034720455928522
    Two-Electron Energy =                  37.9086460140947707
    Total Energy =                        -76.0266327350726385

Computation Completed


Properties will be evaluated at   0.000000,   0.000000,   0.000000 [a0]

Properties computed using the SCF density matrix

  Nuclear Dipole Moment: [e a0]
     X:     0.0000      Y:     0.0000      Z:     0.9783

  Electronic Dipole Moment: [e a0]
     X:     0.0000      Y:     0.0000      Z:    -0.1680

  Dipole Moment: [e a0]
     X:     0.0000      Y:     0.0000      Z:     0.8103     Total:     0.8103

  Dipole Moment: [D]
     X:     0.0000      Y:     0.0000      Z:     2.0595     Total:     2.0595


*** tstop() called on localhost.localdomain at Thu Jan 14 18:09:36 2021
Module time:
	user time   =       0.42 seconds =       0.01 minutes
	system time =       0.00 seconds =       0.00 minutes
	total time  =          0 seconds =       0.00 minutes
Total time:
	user time   =       1.38 seconds =       0.02 minutes
	system time =       0.03 seconds =       0.00 minutes
	total time  =          1 seconds =       0.02 minutes

  A requested method does not make use of molecular symmetry: further calculations in C1 point group.


Reading options from the RHF_MP2 block
Calling plugin rhf_mp2.so.


MP PLUGIN
  ==> DF Tensor (by Rob Parrish) <==

 => Primary Basis Set <= 

  Basis Set: CC-PVDZ
    Blend: CC-PVDZ
    Number of shells: 12
    Number of basis function: 24
    Number of Cartesian functions: 25
    Spherical Harmonics?: true
    Max angular momentum: 2

 => Auxiliary Basis Set <= 

  Basis Set: CC-PVDZ-JKFIT
    Blend: CC-PVDZ-JKFIT
    Number of shells: 42
    Number of basis function: 116
    Number of Cartesian functions: 131
    Spherical Harmonics?: true
    Max angular momentum: 3

DFTensor::Qov: naux 116, naocc 5, navir 19
mp2 correction= -0.20411175048133850529197
    Psi4 stopped on: Thursday, 14 January 2021 06:09PM
    Psi4 wall time for execution: 0:00:01.73

*** Psi4 exiting successfully. Buy a developer a beer!
